VARIABLES = "X", "Y", "P", "delta_x", "delta_y", "monitor"
ZONE NODES=1985, ELEMENTS=3808, DATAPACKING=BLOCK,
ZONETYPE=FETRIANGLE
0.00000000000000000000
0.07635655089970183607
0.00000000000000000000
0.15486329833409351320
0.07800602497621203502
0.00000000000000000000
0.32831571827827077392
0.24915677596950833173
0.23795186774204207802
0.16883752312314975752
0.16012951840363290335
0.00000000000000000000
0.00000000000000000000
0.08632402930039001498
0.08133374259953381202
0.11816269339492575796
0.23738978756905929068
0.19565421951451306137
0.48462187810037604674
0.44096997630982626148
0.35885130431197703738
0.40137417434484268242
0.31672592655886244728
0.36424335768276960845
0.27687811105915233201
0.36310657032605253569
0.40590414936878105312
0.28185777180512711082
0.51825080881866125715
0.36916787347078988679
0.45777206176866991338
0.23374169586671389443
0.32154298222152866149
0.11167168489476246573
0.19845597159070815785
0.43667002360148809981
0.47014260113474859448
0.55222957091537472341
0.54567896145207928082
0.61838016319828326139
0.50586997214584927818
0.81254756114454618210
0.67708740736054595644
0.70682479851352653100
0.58340528947660930115
0.47935890400395081423
0.73832701347884932552
0.66611529041552330899
0.60421505932501573533
0.59345002994073658975
0.53159748322494615458
0.40939559735809427643
0.28999745815198796350
0.25864230774661189916
0.00000000000000000000
0.00000000000000000000
0.15463236922738041179
0.00000000000000000000
0.13717753354862302628
0.00000000000000000000
0.12239471101458627988
0.61940407889082560455
0.76590572808103374314
0.68656158063734429309
1.12594962085816607811
1.02001640183381114824
0.93199384524111639205
0.93684456919197112157
0.84200147050303397744
0.87006184302481093251
0.76931383031748579171
0.70613614993433793110
0.77938112112237512008
0.88769963749407210241
0.92440995210605358956
1.03311590957680543568
0.85119642299454023604
1.20229595108145304039
1.05338207436028641339
1.12681067588860761575
0.96013659317757904521
0.58126587852720446037
0.64057563385598936812
0.46659802363387492541
0.71491677402803455177
0.55758754761970286129
0.68712388500478627229
0.37662060302501176867
0.51936166928326021885
0.18554599531268617385
0.33646300694587671920
0.76802923958874613763
1.09028826633938202839
0.97563099061435010206
0.93853756986373337856
0.85296522643384986573
0.81839160979940095419
1.22045341900618020681
1.32395338185687583277
1.12247272169462508629
1.51084407193546943482
1.33699165455500112998
1.42416833844180801272
1.16034735184949133746
1.23276936188542318718
0.98386905201389640574
1.04612246437955214162
1.26869323189919014361
1.18996597995756703270
1.33890731419597797114
1.09336097806199905591
1.41754677688323438289
1.25820663500520746325
0.56114465885947051316
0.38085405291427809615
0.38728804831751051374
0.00000000000000000000
0.00000000000000000000
0.18801487709684591709
0.00000000000000000000
0.19586661193310112017
0.00000000000000000000
0.19493784326043486765
1.61944514640871406463
1.53626812660326184101
1.74837079767422975962
1.34488399837359984268
1.57269971775589878504
1.44121840311849380711
2.01741794708486388288
1.88649965619223913826
1.79997261453568024869
1.66574875191448423806
1.19092162774393273139
1.08389958119559537408
1.20705707162171682612
0.97226249485451043952
1.09779472294695357171
1.21399247868736370748
0.85139541789814798811
0.98177565343566497447
1.21254896557895897047
1.09995187402335248272
1.58387116244949144317
1.64395792904830040371
1.49176492046539510561
1.74313783643356146058
1.60800731803438567979
1.69587450127589800530
1.47413252470263378413
1.55369386390354957683
1.33971479894789147203
1.41216497894765380394
0.59363551801411917896
0.46581957786332689464
0.64386045641793032690
0.32748272515578968900
0.50982278511425160872
0.68525587382276675896
0.17342423184944194547
0.35949888519786904473
0.71049254222368973810
0.54435724881121949625
0.76737896815617645530
0.81081937158146188960
0.92755529739874220674
0.83980139940811504573
1.06756359693146407608
0.95699110991318092623
1.29587770120097722781
1.38034992470130424280
1.29811995452724837641
1.53612892522018973374
1.45374781743759773356
1.45958076687721893805
1.36994156361545904588
1.37744713855312150841
1.28310678427740665342
1.29394545171923125437
1.42652849184139562944
1.68629944250025132213
1.63410304972170461468
1.55633068842188393432
1.58453494702485553347
1.50728781234758235641
1.68890621278842800734
1.81534056055655645956
1.86608548157427023284
2.09479935495214508734
2.14943499960137351934
1.95631310841442540571
2.21518101921101218110
2.04219659399656316978
2.18729584033862334280
2.00589150992019105146
1.74459745015382194921
2.07227825736536130918
1.94321762056039615274
1.90721689073549804938
1.83460819283603981944
1.79196047698649274516
0.42115656779979926405
0.26379353385626991280
0.29318666449937436091
0.00000000000000000000
0.00000000000000000000
0.12468218985334979243
0.00000000000000000000
0.13769933201677064805
0.00000000000000000000
0.15450383439829820653
0.71749973423109214554
0.88759331970584587346
0.83841213364257183294
1.17726948270978026834
1.15488530442535397569
1.04209673505962729934
1.08298930697970607895
0.95928777432229217492
1.12304368962776623952
1.00529176655383367667
2.35545668217465964389
2.32200231309976867777
2.47719749516775467058
2.21071090074758735966
2.37681467753006137045
2.27586257486413190421
2.65673487653420670185
2.57597823609544462897
2.52302996277997682029
2.43403802636786537050
1.56758325871231574133
1.59962042723227226837
1.48436368423043729692
1.67081287003856537865
1.54626496474989427732
1.63350844484733892514
1.42633086740507253332
1.51492712289457331920
1.30857510373272467596
1.39863736211118450115
1.61568053187708171592
1.66452092016651853612
1.69533195117922064199
1.76992142241112349055
1.79740451335848439030
1.71527936537610448120
1.85735763281716548256
1.77565129090876627771
1.82630462226336631737
1.74480207902267725473
1.54758031175558774528
1.41188210119708612567
1.42065339090414211043
1.25801157850809808281
1.28143045375166519939
1.29804127939236280120
2.23365944038697383789
2.25095920886304012853
2.09522348053635854015
2.29575920031731284254
2.14841304260441745555
2.27049535701953830724
2.00955979674084206366
2.11969063130650381410
1.87522849916248146585
1.97530029013861607723
0.54242246099124935554
0.49781712397448379948
0.38275908609960179740
0.43961500609957565588
0.33288436342308524996
0.46334567732312675892
0.22570023493049348740
0.35341238248925016530
0.11566252586123726420
0.24145110231745992024
0.90567003390930078677
0.73210989273916260434
0.78304123441201967104
0.57597900696891746186
0.61412794138002368971
0.66294642421294047718
1.80910044053220109284
1.76313165790598502802
1.72771163312876230300
1.71763968578621128991
1.68087617476104345116
1.64741400444703844919
1.95264260664112287991
1.92452898059978805279
2.05403052196111746142
1.89886477400724351661
2.16626111350816330514
2.03019076193508185568
2.71205844728468870031
2.76091692826232026903
2.62367640969839710507
2.85098577319948409681
2.70372609747219527776
2.80637907729454028072
2.54918590390761101716
2.66532897785057443230
2.38618811739456804233
2.51591932554021591173
2.43938161609426407139
2.42037315652428874913
2.59249243986105648574
2.40392456440717472432
2.73354191065483220768
2.57127731710082230165
1.67885308028675228620
1.50248904399716787239
1.67665935867857540664
1.34712324840383246283
1.52088949610113766120
1.67319911795880238436
1.20925105727634063513
1.38340636076665624010
1.67100805325425705306
1.53591123531841988736
0.00000000000000000000
0.10928643653576067263
0.00000000000000000000
0.31982498639972367638
0.20906205428876917241
0.21512728566404284991
0.00000000000000000000
0.00000000000000000000
0.10338260003816160393
0.10531999611434070263
0.92848612910669092724
0.78603040625094566796
0.94425967350021766666
0.66177676073904911913
0.80974960380270699645
0.98077119709832605299
0.54800740056237451370
0.68911076023642492405
1.03047947852489629739
0.85161387278373090748
1.93003168304553440748
2.00694777255970491225
1.88421427598112378732
2.18569014664270167003
2.05311342599229673667
2.09102181078419135929
1.92477359946421744397
1.96452262943985678234
1.79812203195509501263
1.84067653891174476399
1.49348202052966216868
1.29607147853761062173
1.31879984864849730819
1.10172185310671388869
1.12654939675732235216
1.16595337769443174736
2.02469037738830826001
2.23988598672973093784
2.20506671273639875963
2.12617640819802300456
2.18769765544124705769
2.10193363259743248861
2.93731830569641161333
2.88789540262569088824
3.01130530038486154965
2.78306595878179052761
2.90482842293013865387
2.83739060995109682040
3.14194629264050284689
3.07823769134599523056
3.02397964625365656133
2.95883644702617454314
1.84708552257849301093
1.82477389926384736540
1.99610941855441459403
1.79096490491570459191
1.92841225700501017748
1.80490579660974681531
2.25939516516325378248
2.13173983834364211276
2.08629589872839771303
1.95938477082290019027
2.48680054878377410077
2.63868093509082957127
2.69489925844425526336
2.90655646011041524091
2.96868621275640354185
2.78363492095168973961
3.13291893418433575746
2.91297801388251187404
3.04217711779951427431
2.84153302892452375161
2.19387621597310245036
2.21076872768096688304
2.05789287151237054729
2.23387301860216691551
2.06947511505440662205
1.92434612357552436990
0.43667674167362735549
0.31832123567002185149
0.42385355620632514384
0.20833563311064914880
0.31258230071039166953
0.42013862953368880104
0.10310512115544731571
0.20673251144807511248
0.42524257312877467019
0.31306981959202406784
0.78417260952549150410
0.65906228353231355310
0.65244171213167789780
0.54502988513186323427
0.53389931622920783205
0.53484847296126447613
2.31055648899213705860
2.31454715454870818547
2.44587940141629145430
2.38449423105536162382
2.48899261295156559726
2.33778323756053874050
2.77096070822921092258
2.59773979962802137322
2.61796881932750613586
2.45490127541816693935
1.66093960004155016819
1.47689980166686130048
1.67297476676692502551
1.28316568495091454238
1.47809698607321471364
1.68038497839210920759
1.09476453127493389417
1.28263152567829985529
1.68259238214901007957
1.48380890306809187784
2.85370766697950584145
2.70681927935838340105
2.94863459682801920536
2.58534092817579752577
3.04508760335178685352
2.80895889540676657603
2.99327229861748200790
3.06952374592993049163
3.13216170260495152533
3.20122030273626068109
3.26336615202226898447
3.13744962611070032921
3.41068183735573215998
3.27042167177240106213
3.33171857765456058686
3.20032312794460160887
3.05813806065308257942
3.35617838737839724317
3.29542623149948266104
3.20679499020855063307
3.22321337344009384296
3.13288361760504807663
1.86214489136388694490
2.02680061454730475745
2.04645775450639044735
2.30301609879128710290
2.33752988181034249138
2.17140234630609985089
2.35803046028473994866
2.21443412160097885533
2.35700892526902761048
2.20155341884107524919
0.33072980880434499351
0.22430091297596055355
0.21409622479015885665
0.00000000000000000000
0.00000000000000000000
0.11497581604056250626
0.00000000000000000000
0.10876294547473708274
0.00000000000000000000
0.10492721372023162962
1.85002642722077337289
1.86864214021402941235
2.03903564316668406420
1.87288557736835703516
2.21085543803966722010
2.05396691587076052343
2.30933402083576355679
2.44955027195692442987
2.32789041374368066428
2.74169842544179021004
2.61933560706542190033
2.59804550153072488783
2.49952590690038967125
2.47397236083556393282
2.38021091772266046860
2.35308278768275869197
0.56820959951389393705
0.68098410814744536612
0.71811825443378396461
0.93680353877232103166
0.96636724382669680899
0.80160872963400064961
1.06011346400980732696
0.88573280213378913217
1.01056588827136728526
0.83713153496880066129
2.44317559231877678982
2.74866463016915796302
2.74038681301579822858
2.58846120391977496666
2.73967300412452097191
2.59027250656538976514
1.48397045521880777130
1.32684055608956730232
1.30081774008462325298
1.18740038897691180253
1.14660880977230017486
1.11256431220724794073
3.46148500573047845918
3.38634500194803855777
3.51255972997158760762
3.25989323310190037830
3.37898799227426316349
3.32050024661985121455
3.62690684049941802769
3.56663441847478779323
3.50066775938914620525
3.44170078791740730040
2.97169312526647777517
3.06206141538768772392
3.17935852512496053279
3.24108929017293245778
3.36117671405058837664
3.15528429691674361379
3.58496544911115888610
3.38705143614264381213
3.48059522531376197563
3.27332886955078228297
3.50937983592223234908
3.62834292993689500051
3.45999476294594021653
3.89621929048010429142
3.71953755492748960876
3.76265201564844886661
3.53045578497241319127
3.58395890752582690908
3.33361540291556579518
3.40342062542163104055
2.48099065875946145354
2.47395610368113283428
2.59184469113924320638
2.41674334868318130276
2.56018723869722153452
2.45193674593859212152
2.79738038947033462733
2.69614445471967512091
2.68590656993661847096
2.58209833064498717192
2.79240568666951904930
2.67116419652197567558
2.78167975264607658659
2.53349490375103769679
2.76482415588240293403
2.64873765545522621423
0.12427451395123505218
0.24004081615568290120
0.26233279184690444508
0.45954196675012509710
0.49313514651597273319
0.35087553540983995592
0.58857094446048618952
0.41788567098687956491
0.53717875427986150338
0.37977546336584599995
3.69286392086810355551
3.58168411829054589290
3.77857649264365713648
3.45659976807266300369
3.84401191546411613587
3.66002354920774841673
0.70741437509130078443
0.65266553269602789467
0.82361215986652047683
0.60478867669116287420
0.94014552835093523342
0.76783899697640223270
2.34705709146934271558
2.31669851973581142346
2.18774178416848519291
2.21560007073544262823
2.09624886931281428915
2.27054488701234369330
1.96781615128889764144
2.14671884644969024336
1.82449584698455979925
2.00896520344005269365
3.18770434804981794841
3.06676511096805093359
3.09877388449013180249
2.95313119670195600719
2.97157817256013601082
2.99634827002332082557
2.84531511134256076545
2.85210481537143811792
2.88419761636319060827
2.86336425013211970381
1.62280865339209645626
1.50382792669585829692
1.62946874253817597378
1.37256492528750095872
1.49880387346734211818
1.63819010690622235416
1.22482954562141266308
1.35205597692505730123
1.64917162182712151441
1.49188461401001903894
3.27578972281718616699
3.18579787940271152991
3.37608109379670606742
3.08260964960159489223
3.48253249333542669319
3.28398930354194940051
4.03252478492880950256
3.86415819714797370565
3.90224876015210142555
3.70465370965048812479
3.74528170849541774956
3.79081695971369869724
3.55407016142825815663
3.59934379464407605553
3.70067612502578446865
3.64723717431403171574
3.66678329824314852559
3.99873770399516281771
3.96673563604903023361
3.83048850439735044660
3.93358908044781996338
3.79766409946966243538
2.04483677363810212313
1.88775357192664161587
1.92478231761575235836
1.74813705498362415014
1.76848917435520180952
1.79463372721494907047
2.80389373993115187389
2.80438554550867058524
2.70187913072581720186
2.78702217070743474281
2.68829651164750060843
2.79891741856741971262
2.58654463787506250227
2.69934921149610040914
2.47828598485967654952
2.59476841672325697630
2.66801306100910373686
2.53352652794722255081
2.56684412136950923511
2.38079527675057622815
2.42820822229035115924
2.46133104051077777896
0.46236125564932639698
0.32558367329001658419
0.29131786479436394544
0.00000000000000000000
0.00000000000000000000
0.17272091190463409460
0.00000000000000000000
0.15372468736991812266
0.00000000000000000000
0.13707167458015456774
2.89061569544339036497
2.88801555625357808665
2.98451173570294692183
2.86993187025146401226
2.98392106689933367392
2.88134398914063805108
3.18145889481214450001
3.08083130584735132018
3.08661182079831730718
2.98547482877106062915
1.19325390661708952145
1.06700637789035757130
1.17424918966934543896
0.92421916981718521544
1.03539205407958001537
1.14586831315595949476
0.76230395059450828388
0.87820581131896435778
1.10730805445756796956
0.99221076841879829455
3.18543122185171068139
3.18360701905490994790
3.07443726964327845863
3.18229520389275943870
3.08100303827890265040
2.96996452581084424693
3.78436073547115547910
3.88165469930491280337
3.95821202203890454285
4.01816780471459367163
4.11487103018759992068
3.95743791808290357181
4.25516195488593584884
4.11263531483685174095
4.19142594855003380871
4.04496088566792177943
1.29677236212442070773
1.28038290579799785007
1.40123647531098205476
1.25677666129462162203
1.50900946146254022473
1.38930472942644223089
3.65372679055070825882
3.54350515699120194313
3.64961621101460043093
3.42975928736467494673
3.53191422713124270061
3.64019248805443806916
3.31149683778195980111
3.40713720109373641165
3.62063819792900742911
3.51360125831668890228
4.06891376982603514278
3.94443038864880657357
4.11546459233311967552
3.76060137853419718112
3.90679784734124035950
3.84189936637613849157
4.26626737375615228132
4.17918021909986769913
4.07288530270192694616
3.99910333968378273184
4.05908533858745723677
4.09803079877634512940
4.21019363743317232007
4.17044339573516786857
4.29584300579648026286
4.13422910335618709610
4.48803406048187003563
4.35213822574136699473
4.40086443886985545504
4.25337834813416915125
3.82524719330683504737
3.82099435326379355260
3.98927397323765919879
3.80891255439851006415
4.13302831255869396188
3.97839156026109019848
3.17529642538404877072
3.08251376139669952536
3.08464238714692928767
2.98830812197806183761
2.99178568750250795105
2.99277470375960463755
2.89072118097182828578
2.89727621534841928153
2.89785508039660566482
2.89960476153113066999
2.06140945269901321169
1.95363589827679895450
2.08105570662987204855
1.84678525849241137458
1.97269371033715157360
2.11459197199920811983
1.73751334895667164382
1.86285762585479020004
2.16095749722466390352
2.00298109363464815758
2.98984844265066262992
3.17894045491006460580
3.17715535988157871117
3.08300003007263789812
3.17596303712604388636
3.08425456468946279642
3.51478979478575404016
3.39087535670142159461
3.40864585829279809204
3.28099857755037538354
3.28924491569409394032
3.29943114428031947227
4.16692658813532190720
4.43739120453349400464
4.38405064174130210120
4.30525006469405457921
4.32484512937495768625
4.25306112299739691451
0.72462819559940028213
0.56846620868026676021
0.71619225975620337543
0.38572215357960554227
0.54762684280400708570
0.68691467146048967862
0.19036764554953908291
0.36068742841180478909
0.64179267415427332377
0.50935252891597015967
2.69705357811355828090
2.57396770994719936709
2.73089865337910042697
2.45433259028756012299
2.61366559611728455081
2.75714908107257672398
2.33580467980220740642
2.49781030439453832770
2.77564331229550020907
2.64544372575564779027
1.08730075948266224906
0.97736208309896810409
0.95800059184074348728
0.85865892281933697827
0.84292761217656231310
0.80973056326415926431
1.61083306405353487989
1.60077660511222452655
1.50341352693404939345
1.58368743506137588106
1.49055435237670308446
1.59189780709577144435
1.39570884547085238836
1.49726676804067482252
1.29742284989304357268
1.39958347286818796107
2.19224462925759233656
2.22852396504939731514
2.34619634845127800205
2.27861476276990027046
2.51961677556402774414
2.39719874179296565941
4.20881028933772860512
4.25284472546914305013
4.38829024185905769428
4.38995870149734912502
4.52121132139668979733
4.31080715605736575213
4.74793354744342277485
4.56822328931556054243
4.64422607925355990233
4.44603977228788949105
4.66682022340220381551
4.60001491034377885114
4.50466712860585882794
4.54178500196352263885
4.45038268501782141584
4.33930859413048697348
1.72116448727513438044
1.93469068792454379491
1.81463463787931589266
1.82823418400407411433
1.69823400667401869235
1.70845908438290705611
3.61962204819525767974
3.59258738737647043138
3.49269769876743518822
3.56266836329691161112
3.46894365008874272505
3.57364810789241316158
3.37531696597849029118
3.47766884861456571088
3.28004595904915596805
3.38068577508244727525
3.17455692130911160120
3.07280740027423426852
3.17403028930774944172
2.97556819647321324496
3.07720938833403812041
3.17398943969924340891
2.88090845147242191615
2.98332273943199455246
3.17441049292615540267
3.08037496121105780489
3.45789658180622261341
3.36027476025671223425
3.36589851032806608444
3.26678068891512918270
3.26909319537486453555
3.27341948918852798656
4.24198105628595811822
4.21647228842729138165
4.10435215593378099896
4.13284478841101865498
4.01207592830238368720
4.17907157321156663699
3.89366058691768390787
4.06231631762549305620
3.77491899083960458228
3.94529677594243199934
2.83746961679709253090
2.85806371981794571369
2.96204190081914031651
2.87217666020333828314
3.07308124167013696493
2.97069984706172185440
0.56650459731092273064
0.38338176406182550293
0.39321551987090658242
0.00000000000000000000
0.00000000000000000000
0.18901905198309115752
0.00000000000000000000
0.19821438219414069803
0.00000000000000000000
0.19874407840245000845
4.71892895278729085362
4.60727001830928006854
4.66539811832470263653
4.49403106811667640841
4.55399480838249726133
4.61058010232923987104
4.37756878387061831859
4.44115986811239338294
4.55237834570791566335
4.49827480458457795720
1.23272746692485646314
1.11603287078842616786
1.23531832556896659092
0.99636520654572757749
1.11817504240929443959
1.22988641938255716113
0.86835630803017005430
0.99480276911637777193
1.21626810771015669843
1.10873561971639333912
1.50197012092443449305
1.41848053890035763480
1.40907638134487744885
1.33016794768871315924
1.32521033519834641190
1.31453040365287399105
3.97073255335988850590
3.81756832164808157515
3.85242996238797408282
3.68182599365785279133
3.70443226652617374484
3.73622058066267204168
4.83865281913867306685
4.73274903082056486170
4.94462043579347287903
4.48371625485988811732
4.71095668417752921897
4.61030960723740879104
5.15717138022748322612
5.05520949843973088633
4.93856132115977963792
4.83463124407023858708
4.84313125161391511142
4.92288748916081075890
4.76124038405781657701
5.06090415924291736616
4.91584679389195322585
4.99384369291654550693
4.77374177007988631516
4.84231981935200384015
4.63191577361574147176
4.69260801081762579656
2.20703752604351244315
2.35093941891409841105
2.36629645962528822878
2.69811182212326805541
2.70483214735738419776
2.51859840430246828547
2.75691879906858305915
2.54767684561722251857
2.72257575768679549455
2.52625315630649982523
4.36215699940886025843
4.46875068806087849538
4.34991033318306374866
4.69329772623684338129
4.57517872591188989873
4.57814665772512796593
4.44407860639596563601
4.45986774455685264229
4.29617458489768200280
4.32814278714701217154
1.63594139260751880727
1.75021874882382233451
1.68967603590268522495
1.98619732913808100250
1.92251273573843239895
1.86623614946020222050
1.81070165298592589131
1.74700708695973450091
1.86517693609099266538
1.80495036669631714332
4.71328829977905439108
4.70739682447417617794
4.59983135920368724214
4.70090567375216838997
4.59043241310441008096
4.48350306861372249756
4.79806205164189059076
4.74483136196159005493
4.87923451743152281068
4.69007498427193869617
4.96543320246863029155
4.82731954510400029790
3.56246293339246511422
3.45769686614216142928
3.55083863497164387013
3.36008283785176464775
3.45221535178256733190
3.54711189009731153732
3.26664542234384303043
3.35832174274965433725
3.55094877168107636578
3.45228339028744013461
3.27532529578098863254
3.27032017150360987401
3.37233603309337581777
3.26750331611469491122
3.46744112582095631581
3.36433262970113355905
3.17858549169829807113
3.04839253562455159141
3.17717741788672913827
2.92558431045111344559
3.05796414916205794299
3.17594168911727692262
2.80896406945512211450
2.94542520270545571393
3.17505392570992350798
3.06615386247599719383
0.15818256599329125200
0.34373332202508599664
0.29703837804774152476
0.69901279612236577599
0.65421799078296760666
0.52976999492968490646
0.53232962079153467450
0.41998024212325757443
0.59571510102310376578
0.47758287462920168132
1.55406014304324169295
1.66508274959126545411
1.52187276970066731607
1.60779922860858448530
1.37865568260416959667
1.46931372083479372392
1.08233807734664733147
0.91403563484976768638
0.96206317589330603290
0.72757885434310898276
0.78812208902657465703
0.83625022748236976788
4.00458966291149387473
3.87808374494482599459
4.01229259788204650761
3.76600860424295635909
3.89299188511013349867
4.04026274540177876560
3.66221296463033985091
3.78450680016892393454
4.08319189330172260810
3.92508281203031961226
3.08692908204351201817
2.98163491183229156789
2.94912689227190405461
2.86832809894017692898
2.83725124432521136342
2.81943377354829038950
2.41262523338084111657
2.29178627016645508618
2.47197145647811344915
2.19607315634618860400
2.35893592643400529241
2.54517828028617243419
2.12164719669510981603
2.27218404873543455835
2.63973828132253673928
2.44197522160091429200
2.24620841029043649684
2.09209852058986589540
2.13955757406375379759
1.94799997558296089650
1.99885690648303460115
2.05520365168120822119
5.45849751646541747618
5.28306828462885924580
5.40401279578257209835
5.10324499193405412001
5.22362778791359350095
5.34020710868537129556
4.92396378080694230306
5.03321158896258324944
5.26000384402804854744
5.15012975196004685330
5.00373101482028825870
5.34206020849882268209
5.23071670987081738247
5.17040704982286047908
5.13621909356581607398
5.07257206094888069003
3.65184057903021352942
3.87784671641688172272
3.76573533882430222519
3.75918865291707637866
3.66197666901510876514
3.65176063526046235097
4.81102877700508368974
4.88993918048514686348
4.90494733778131752899
5.05931128097147642109
5.06592510366050419179
4.97150675394301355681
5.10579840827076214538
5.00239458347164855923
5.08098700617397991408
4.98356662023132734873
4.69114375716373821490
4.52691702786313410201
4.69164643252227087089
4.38211904079779390742
4.54600802998820352485
4.69237864867100373800
4.25257246414331913087
4.41579569064911048315
4.69292971436529704476
4.56255128573897561495
4.80696977071103148660
5.00590487466215616763
4.90537623278302792329
4.90381724450996969722
4.80199371196522228900
4.80390735549752800893
3.65609863538108248449
3.51481285498493933872
3.62128145091831665781
3.38838710575320556373
3.49212683329487205697
3.59351831667512833235
3.27620319404554960485
3.37794263403796168888
3.57395037840257323580
3.47659196245825219407
3.54456822210865185596
3.42862342530738617441
3.40679802159304667697
3.30705820673797479259
3.29493963788033994433
3.28459826614432293113
4.15519550809006776859
4.17380359716536286641
4.32854683327565403772
4.20928792592181544308
4.51246663771000910970
4.35045456229823379601
1.75503593823994541445
1.69491688143594498861
1.60256077048449907529
1.54280288696707801321
1.44831480406314705434
1.62614288892800207265
1.36926625509037402928
1.53212379077375326908
1.29904418428523693585
1.45155540675777383619
0.37889209703454923561
0.23947326385265485515
0.26506359926203576505
0.00000000000000000000
0.00000000000000000000
0.11423097081758379345
0.00000000000000000000
0.12525482239279792096
0.00000000000000000000
0.14038390349164811544
0.82936304562352036740
0.75436301335944511148
0.94818914579819635335
0.68146485322142080765
0.87409676174922412706
1.06117830131843704500
0.60815471769895934617
0.80154203702598281200
1.15666611858174239735
0.98729798945863178616
3.27127043606229461759
3.37610481180914012711
3.17921242288675731658
3.59150214226373964976
3.38960067051503166624
3.48631351458613369942
3.17685354718651780104
3.28239984494437386786
2.96340272464809384445
3.07440110178168213295
5.56809813548182486187
5.50847230962668721332
5.65995266366847538109
5.35118508907332923741
5.51732508962789136575
5.43851789495100579330
5.79858134871495956020
5.73535672887305114642
5.66382256906235603822
5.59428740604482310772
1.00576593983632478491
1.12036499169515213481
1.18633645741950721764
1.21943948058839479742
1.36620171798466283342
1.28737215634341573001
5.53351360269398195868
5.60646235160741834846
5.41612387505688452904
5.75578520779392110995
5.56275671330894727618
5.67985314413026642910
5.37781156740884735967
5.48871374253923782760
5.21047057482261610772
5.30453504360117289451
3.16109358968366072062
2.96825561579675900603
3.06802401359182042029
2.77637452435623943714
2.85819840853469386843
2.96209300935634889385
2.58929918334282316295
2.65677027453000436097
2.85411367983819808103
2.74372294651710868507
5.56637472740028371732
5.43428660819866049536
5.42313758623794406333
5.31750095811154643854
5.29855813318085111518
5.29573087631758987470
5.20957987333407324115
5.18651789316954747733
5.17677680870508272193
5.17575365365145767527
2.26065943664198165663
2.12493691332810152872
2.29849302473733674290
2.00088102702090919749
2.16465937324788271212
2.33446966807193723170
1.89681517847830116708
2.04621691753763723653
2.37149065039574002967
2.20414682038479314841
3.65408695088889379221
3.64626357667669687146
3.53481516047366906008
3.62739947410567253883
3.51757010776700518306
3.40711445433279047634
4.01234994578845682867
4.04047527145282714400
3.89306053794820838831
4.13365935398576045401
3.97155572102074350127
4.08367904412243909462
3.81826251584932219174
3.92550565500048032064
3.68215381223555970891
3.78470283269193741305
4.81110718419156668801
4.92048693811320347891
4.94132708091552608209
5.12702054510421501021
5.15814620709343429894
5.02493229881662539782
5.25061590765752761456
5.08785349384247442828
5.19994018898325904843
5.05185548568641085154
3.26352558337792286736
3.17041421590309635548
3.37781661875995053990
3.06670085729631169968
3.49181886632725424491
3.28147230037222792376
4.82267618590355251484
5.13133241664209194255
5.00156555388540535745
4.96842878387252273598
4.85600761955425941352
4.83797224789751378893
2.08366248857112346116
1.90339548776480205206
1.95499273674153561942
1.72283440337499027528
1.78877509421946601087
1.84522234842640386887
5.32993685652562732002
5.69356206685477950202
5.63589160613747264250
5.50283059611811342648
5.59163477274465581246
5.45502909781391398525
4.01334265304096682314
3.89543055746386635008
3.85367395178583427295
3.77710352554165140759
3.73778360660923514303
3.70532998655825362988
4.15520611211995127832
4.31929820859004376388
4.32860363667927838804