VARIABLES = "X", "Y", "P", "U", "V", "err"
ZONE NODES=7777, ELEMENTS=15232, DATAPACKING=BLOCK,
ZONETYPE=FETRIANGLE
0.00000000000000000000
0.03817827544985091803
0.00000000000000000000
0.07635655089970183607
0.03817827544985091803
0.00000000000000000000
0.15486329833409351320
0.11643466165515277411
0.11560992461689767463
0.07800602497621203502
0.07718128793795693554
0.00000000000000000000
0.00000000000000000000
0.03900301248810601751
0.03900301248810601751
0.32831571827827077392
0.28873624712388956670
0.28313379301015639822
0.24915677596950833173
0.24355432185577519100
0.23795186774204207802
0.16883752312314975752
0.16448352076339134431
0.20899714954632903074
0.16012951840363290335
0.20464314718657061754
0.19640758303806779561
0.15749640836886319439
0.19904069307283750456
0.00000000000000000000
0.00000000000000000000
0.04316201465019500749
0.00000000000000000000
0.04316201465019500749
0.08632402930039001498
0.04066687129976690601
0.00000000000000000000
0.08133374259953381202
0.04066687129976690601
0.12758077621176988625
0.12508563286134177783
0.08382888594996190657
0.12073163050158336462
0.07966988378787293046
0.11906777168992246918
0.05908134669746287898
0.11816269339492575796
0.09725962214731379007
0.23738978756905929068
0.21652200354178618991
0.17777624048199253126
0.19565421951451306137
0.15690845645471940273
0.17525875892430328729
0.13600538520710744872
0.48462187810037604674
0.46279592720510115411
0.42173659120617656981
0.44096997630982626148
0.39991064031090162167
0.35885130431197703738
0.40137417434484268242
0.35905005045185256485
0.42117207532733447195
0.31672592655886244728
0.37884795143434435438
0.29812054594051817791
0.27705785706396085510
0.33778861543541971457
0.34627953798052019119
0.30109761271240587099
0.36424335768276960845
0.21587070469662292260
0.27687811105915233201
0.25741498940059720502
0.38280876601380614543
0.33912614270199747946
0.32056073437096099799
0.29680201880900736189
0.23626616528683269669
0.25619007303668772657
0.34571114430216165481
0.36310657032605253569
0.30613167314778044759
0.40590414936878105312
0.34388096058695405421
0.38450535984741679441
0.28185777180512711082
0.32248217106558985101
0.22534764746413843417
0.26550727388731770739
0.51825080881866125715
0.44370934114472559973
0.48801143529366558527
0.36916787347078988679
0.41346996761972987233
0.45777206176866991338
0.23374169586671389443
0.27764233904412127796
0.30145478466875186285
0.32154298222152866149
0.34535542784615924639
0.43183810556872548325
0.36372356579515485731
0.38965752199509928744
0.05583584244738123287
0.09899785709757624730
0.11167168489476246573
0.18364674735692895768
0.19845597159070815785
0.14239000044554908642
0.17270669038073818702
0.21609883372871102614
0.15506382824273531873
0.25999947690611840967
0.24015687169791763433
0.30170037701332785840
0.38249287093987943686
0.40045669064212885413
0.43667002360148809981
0.43575838773979563845
0.47014260113474859448
0.41719297940875910147
0.55222957091537472341
0.49444979725843141161
0.51118608602506165894
0.45340631236811834714
0.51515041977622766378
0.54567896145207928082
0.49332446888095277115
0.61838016319828326139
0.56212506767206626979
0.58202956232518121560
0.50586997214584927818
0.52577446679896433501
0.45362207324534598030
0.47341997422783776983
0.81254756114454618210
0.74481748425254612478
0.75968617982903641206
0.67708740736054595644
0.69195610293703624372
0.70682479851352653100
0.56781743019599195677
0.61465848913796028441
0.58340528947660930115
0.63024634841857762879
0.66260248085590489620
0.60089272633744628127
0.64511504399506791607
0.54463763081122928966
0.52677394530567900333
0.48800628664029893633
0.39988829696377031775
0.51579423745966279657
0.47935890400395081423
0.45801446380271948478
0.44263152668636596143
0.42123273716500164721
0.77543728731169769830
0.73832701347884932552
0.70770721041969764098
0.66611529041552330899
0.63516517487026957767
0.70222115194718637277
0.60421505932501573533
0.67127103640193253042
0.57822231512019528488
0.64065123334278084588
0.55585041937969892345
0.52561104585470319606
0.59345002994073658975
0.46875081629686360385
0.53159748322494615458
0.49468477249680803398
0.62978266017813000488
0.59885638682023478729
0.56252375658284137216
0.56790627127498094495
0.50547819361444845665
0.54178698166448324702
0.46382320308837776679
0.40939559735809427643
0.38928173541444210937
0.28999745815198796350
0.27431988294929993133
0.34969652775504111997
0.25864230774661189916
0.33401895255235308779
0.24619200180666289679
0.31390509060870086522
0.00000000000000000000
0.00000000000000000000
0.07731618461369020590
0.00000000000000000000
0.07731618461369020590
0.15463236922738041179
0.00000000000000000000
0.06858876677431151314
0.00000000000000000000
0.13717753354862302628
0.06858876677431151314
0.22231491368968420153
0.21358749585030550877
0.14590495138800171904
0.00000000000000000000
0.05583584244738123287
0.00000000000000000000
0.17806820344065008022
0.12239471101458627988
0.11703319795467437281
0.00000000000000000000
0.06119735550729313994
0.06119735550729313994
0.12978612228160466002
0.19051850938059908258
0.19790992064761747660
0.55201297849560082565
0.61940407889082560455
0.58254152017145244269
0.76590572808103374314
0.72623365435918896260
0.69265490348592972936
0.68656158063734429309
0.65298282976408494882
0.65247087191781383275
0.61612027104471178696
1.12594962085816607811
1.07298301134598861317
1.02897173304964129059
1.02001640183381114824
0.97600512353746382566
0.93199384524111639205
0.93684456919197112157
0.88942301984750260502
0.97843048551289113490
0.84200147050303397744
0.93100893616842261835
0.84894978666107512311
0.80395359929203391580
0.88699765787207518475
0.84130470208467855731
0.78844332076916878727
0.87006184302481093251
0.69384699675788452655
0.76931383031748579171
0.73806931441550616135
0.90345320610839108255
0.85307919975472845664
0.81968783667114841762
0.80565765041025994009
0.72793770547741498689
0.76428152557018913527
0.61219347937649959412
0.64979308993753726043
0.70613614993433793110
0.72274820576894915902
0.77938112112237512008
0.68641557553155585492
0.88769963749407210241
0.79691789371420496124
0.83354037930822366675
0.74275863552835652559
0.86847875662529983032
0.92440995210605358956
0.83136848279245145754
1.03311590957680543568
0.94215616628567278035
0.97876293084142951262
0.85119642299454023604
0.88780318755029696831
0.75865585670503177251
0.79476171823669483629
1.20229595108145304039
1.12783901272086972689
1.16455331348503032807
1.05338207436028641339
1.09009637512444701457
1.12681067588860761575
0.92391811533582557381
0.97054085592717931341
0.96013659317757904521
1.00675933376893267379
1.07996329273270652571
0.99662625137719218493
1.04347363453309327497
0.90566650808605964063
0.86975885714997702713
0.81528877205845762255
0.54975834367293285876
0.58126587852720446037
0.49533073794264936840
0.64057563385598936812
0.55358682874493214676
0.61092075619159691424
0.46659802363387492541
0.52393195108053969289
0.37829774089293144446
0.43799681049598460092
0.71491677402803455177
0.63625216082386870653
0.70102032951641035652
0.55758754761970286129
0.62235571631224462230
0.68712388500478627229
0.37662060302501176867
0.44799113615413599376
0.46710407532235731498
0.51936166928326021885
0.53847460845148154007
0.66384975943038782020
0.57996865156962473797
0.60324277714402319006
0.09277299765634308693
0.17008918227003327894
0.18554599531268617385
0.31323023254893234135
0.33646300694587671920
0.24554768808662857937
0.28108329916884899902
0.35654180498544424394
0.26100450112928141877
0.42791233811456846903
0.40153051528987582230
0.49297984645856757213
0.64370101423077119573
0.82786443854140912002
0.76802923958874613763
0.73708269476154208988
0.70430243672236780839
0.67464755905797524349
1.14629210871041742337
1.09028826633938202839
1.07183517034983433192
0.97563099061435010206
0.95708428023904179582
1.03295962847686606523
0.93853756986373337856
1.01441291810155775899
0.91311860367890274048
0.99595982211200984047
0.78394100023094215324
0.77004455571931806901
0.85296522643384986573
0.72948362182769521667
0.81839160979940095419
0.75275774740209366875
0.91429810852409998390
0.89701130020687558364
0.83567841811662546547
0.87846458983156716638
0.79321042469407354591
0.85328340472623975810
1.17320151993217303144
1.22045341900618020681
1.12023491041999578854
1.32395338185687583277
1.22321305177575045953
1.27220340043152813081
1.12247272169462508629
1.17146307035040253552
1.02965864544329810393
1.07124456176421811726
1.51084407193546943482
1.42391786324523517138
1.46750620518863872377
1.33699165455500112998
1.38057999649840468237
1.42416833844180801272
1.16034735184949133746
1.19655835686745737334
1.24866950320224612270
1.23276936188542318718
1.28488050822021215858
1.37406086014934203376
1.27836137187114950997
1.32846885016361548892
0.89820830657922123841
0.92696544751935361361
0.98386905201389640574
0.99148351678576163160
1.04612246437955214162
0.95809215370218159258
1.07210820193169387160
1.10323490811452185056
1.01499575819672438470
1.13944591313248766440
1.08429759303708861395
1.17762104179002413673
1.23549459149032170302
1.19775195389389876865
1.26869323189919014361
1.11154094476718623419
1.18996597995756703270
1.15838832792308732422
1.33890731419597797114
1.30380027304758394635
1.26443664707677250192
1.22932960592837847713
0.95413950205997499765
1.12685416495574530771
1.09336097806199905591
1.03861501503794784185
1.06323844381940224579
1.00888546508402621171
1.46419542440935179783
1.41754677688323438289
1.37726921571911775644
1.29855697460059271720
1.37822704553960617702
1.25820663500520746325
1.33787670594422092307
1.20927699342734928933
1.29759914478010429661
1.17578380653360325958
1.22408630748138724798
1.14166347900978304430
0.63803071644375253246
0.56114465885947051316
0.55936610323958668722
0.38085405291427809615
0.38407105061589430495
0.47099935588687430466
0.38728804831751051374
0.47421635358849051345
0.38195432567126114121
0.47243779796860668752
0.00000000000000000000
0.00000000000000000000
0.09400743854842295855
0.00000000000000000000
0.09400743854842295855
0.18801487709684591709
0.00000000000000000000
0.09793330596655056008
0.00000000000000000000
0.19586661193310112017
0.09793330596655056008
0.28443446500556202050
0.28836033242368963592
0.19194074451497350475
0.00000000000000000000
0.09277299765634308693
0.00000000000000000000
0.28577922314272330429
0.19493784326043486765
0.19024191928656053463
0.00000000000000000000
0.09746892163021743383
0.09746892163021743383
0.19540222759676800779
0.29111294578897267682
0.29157733012530584471
1.56514460917209174973
1.52180674242526103868
1.61944514640871406463
1.43011075423006883689
1.53626812660326184101
1.48021823252253481584
1.74837079767422975962
1.68390797204147180111
1.64231946213874580032
1.57785663650598806385
1.23541680961588307142
1.34488399837359984268
1.28266870868989002474
1.57269971775589878504
1.50695906043719629608
1.45879185806474920284
1.44121840311849380711
1.39305120074604671387
1.38258589248768481994
1.33083591106233711798
2.01741794708486388288
1.95195880163855139955
1.90869528081027217681
1.88649965619223913826
1.84323613536395969348
1.79997261453568024869
1.70705977479435699884
1.81743522693323455997
1.66574875191448423806
1.77612420405336157714
1.68633616614578940585
1.61922423483519151155
1.73286068322508235440
1.55348357751648902259
1.60100843925887303953
1.48874326486087782406
1.19092162774393273139
1.13741060446976405274
1.19898934968282477875
1.08389958119559537408
1.14547832640865610010
1.20705707162171682612
0.97226249485451043952
1.03502860890073211664
1.02808103802505290680
1.09779472294695357171
1.09084715207127436187
1.21399247868736370748
1.21052477515454026680
1.15589360081715852857
1.15242589728433530993
0.78315609596309121443
0.85218032216599892692
0.85139541789814798811
0.97870332202500753827
0.98177565343566497447
0.91737043993475742010
0.91182895637632921382
0.97701907414508770700
0.91658553566690648129
1.20742245833020600543
1.21254896557895897047
1.15141861595917038841
1.15697217635535798408
1.21327072213316133897
1.09995187402335248272
1.15625041980115561557
1.03779143231885129239
1.09512007018136725556
1.04086376372950883962
1.09887329848515302722
1.03978518819130938411
1.54735761719248055002
1.58387116244949144317
1.50070896966636291303
1.64395792904830040371
1.56786142475684764364
1.61391454574889592344
1.49176492046539510561
1.53781804145744338541
1.41533611733068642735
1.45465584867431463323
1.74313783643356146058
1.67557257723397357019
1.71950616885472973294
1.60800731803438567979
1.65194090965514184255
1.69587450127589800530
1.47413252470263378413
1.51391319430309168048
1.54106992136850973196
1.55369386390354957683
1.58085059096896762831
1.66991621516209920451
1.59882589647592499027
1.62478418258972379107
1.27100537501467236723
1.30420401542354080782
1.33971479894789147203
1.37553614657181588754
1.41216497894765380394
1.34042910542342186275
1.40692366182526251706
1.44314875182514379404
1.37593988894777252696
1.48292942142560169039
1.45196494970652434375
1.52272939218447245224
0.59363551801411917896
0.52972754793872300905
0.61874798721602475293
0.46581957786332689464
0.55484001714062858301
0.64386045641793032690
0.32748272515578968900
0.41865275513502064886
0.39665115150955831957
0.50982278511425160872
0.48782118148878927943
0.68525587382276675896
0.66455816512034848742
0.59753932946850918384
0.57684162076609091230
0.08671211592472097274
0.18071955447314391741
0.17342423184944194547
0.37017646905607359820
0.35949888519786904473
0.27375688114735746703
0.25045347850261578948
0.34349080517682939462
0.26646155852365549510
0.71270465812586214494
0.71049254222368973810
0.63581860054158012563
0.61480656131699307210
0.69787420802322830404
0.54435724881121949625
0.62742489551745461718
0.46260565086274879620
0.55275095383534500471
0.45192806700454424274
0.52709001696273549697
0.43466083515606035448
0.68050724308514776162
0.70561971228705333559
0.76737896815617645530
0.74803762270211437979
0.81081937158146188960
0.72733991399969610825
0.92755529739874220674
0.84746713277745933102
0.86918733449010199266
0.78909916986881922796
0.78094398006091880760
0.90603194713131274263
0.83980139940811504573
0.84559840865313151692
0.76252863661544090235
0.77514697081590244743
1.12924261233769840373
1.06756359693146407608
1.07573158906352972508
0.94227320365596156648
0.99755944716510314141
0.95699110991318092623
1.01227735342232261218
0.96462680238384568288
1.02044534555438826118
0.89839625466064798598
0.88390524074732135240
0.82531038549478852318
1.24908682614121513410
1.29587770120097722781
1.25421333338996809914
1.38034992470130424280
1.33923493961427642063
1.33811381295114073531
1.29811995452724837641
1.29699882786411269109
1.25605621660730593092
1.25533446005310356242
1.53612892522018973374
1.49493837132889373365
1.49785484604870422487
1.45374781743759773356
1.45666429215740844683
1.45958076687721893805
1.36994156361545904588
1.37369435108429027714
1.41184469052652827870
1.37744713855312150841
1.41559747799535973201
1.41996534578926159043
1.37889853162721287561
1.41851395271517022323
1.23701420601066969240
1.24508192794956173977
1.28310678427740665342
1.25396896520329748093
1.29394545171923125437
1.25050126167047404024
1.32652417394643284965
1.33194350766734515013
1.28852611799831895389
1.33569629513617638139
1.29603270312323992641
1.33778354654018505343
1.31779625007443446094
1.45033050827201481781
1.42652849184139562944
1.38312164539464355073
1.40343920827135004714
1.36120309652118631760
1.71471863946690650238
1.68629944250025132213
1.64715338026731838994
1.63410304972170461468
1.59521686907179427450
1.66020124611097807943
1.55633068842188393432
1.62131506546106773925
1.51523160656225885923
1.58216900322813480706
1.56033193612252274463
1.52205785695103723576
1.58453494702485553347
1.44381886852444329961
1.50728781234758235641
1.48343428961240064723
1.60931899837328007408
1.57069543103464348555
1.54591137968621894494
1.53180925038473314537
1.46690815209448910394
1.49142959013163967086
1.59987514236194883210
1.65417567959857114701
1.68890621278842800734
1.78185567911539299857
1.81534056055655645956
1.71739285348263526210
1.86608548157427023284
1.77749584718134912009
1.84071302106541345722
1.75212338667249234447
2.05610865101850448511
2.09479935495214508734
1.99064950557219200178
2.14943499960137351934
2.05287405400789957355
2.12211717727675930334
1.95631310841442540571
2.02555623168328535755
1.85234195304432747164
1.92140638230333227199
2.21518101921101218110
2.12868880660378767544
2.20123842977481753991
2.04219659399656316978
2.11474621716759347834
2.18729584033862334280
1.93598849574723064215
1.95414103778541670131
2.00589150992019105146
2.02404405195837711062
2.16836541996999843107
2.07766325476078250745
2.09659367512940697509
1.98110230916730811757
1.91061603523837364449
1.88582683448549093264
1.63638868761895972526
1.80534146586404609103
1.74459745015382194921
1.71675183147112497828
1.69427768960106117646
1.66423430630165669619
2.14372963828818674514
2.07227825736536130918
2.05723742568096223948
1.94321762056039615274
1.92521725564794721208
2.00774793896287873096
1.90721689073549804938
1.98974757405042979030
1.88665118615488403009
1.97470674236603072060
1.78887301463480064001
1.76524134705596891237
1.83460819283603981944
1.71795920301739668545
1.79196047698649274516
1.74391748913119526421
1.88891290669821798609
1.86758904877344455997
1.81328433491126617128
1.84958868386099539727
1.76827896357015745821
1.82590717044466011032
0.50739604290695927702
0.42115656779979926405
0.44348807283156310710
0.26379353385626991280
0.27849009917782213686
0.34247505082803458842
0.29318666449937436091
0.35717161614958681248
0.31033469482758202496
0.37950312118135065553
0.00000000000000000000
0.00000000000000000000
0.06234109492667489621
0.00000000000000000000
0.06234109492667489621
0.12468218985334979243
0.00000000000000000000
0.06884966600838532402
0.00000000000000000000
0.13769933201677064805
0.06884966600838532402
0.19423786185480984567
0.20074643293652028042
0.13119076093506021330
0.00000000000000000000
0.08671211592472097274
0.00000000000000000000
0.24099327977704393389
0.15450383439829820653
0.16396403312387008988
0.00000000000000000000
0.07725191719914910327
0.07725191719914910327
0.14610158320753441341
0.22384524944883626985
0.21544299825807250448
0.65556762612260566225
0.74243935119363424491
0.71749973423109214554
0.90757430855229404010
0.88759331970584587346
0.82748614393101116438
0.83841213364257183294
0.77795593393683204475
0.86300272667420885320
0.80254652696846906501
1.18409555522685661089
1.17726948270978026834
1.12241653982062228323
1.15488530442535397569
1.09849101974249063751
1.16607739356756701099
1.04209673505962729934
1.10968310888470389486
0.98482601622918475304
1.05483016599554568771
1.08298930697970607895
1.02113854065099918245
1.10301649830373627026
0.95928777432229217492
1.04116573197502915171
1.12304368962776623952
0.92185195009820275480
0.89884995398243194842
1.00529176655383367667
0.98228977043806287028
1.13896449702655999658
1.08008853548959393720
1.06416772809079995810
1.02369425080673037698
0.94644254312983977506
0.96484502738273658640
2.28531885069283591250
2.27137626125664127130
2.35545668217465964389
2.23571865635057109856
2.32200231309976867777
2.25464907671919601029
2.47719749516775467058
2.41632708867120715723
2.39959990413376189622
2.33872949763721393879
2.11406442391622562127
2.21071090074758735966
2.15275512784986622350
2.37681467753006137045
2.32633862619709663733
2.29376278913882458710
2.27586257486413190421
2.24328673780585940989
2.21264878723275248973
2.18533096490813871782
2.65673487653420670185
2.61635655631482588745
2.58988241965709153902
2.57597823609544462897
2.54950409943771072463
2.52302996277997682029
2.45561776076780979849
2.52658786563159942773
2.43403802636786537050
2.50500813123165499974
2.44992232015501887332
2.40542635194896359252
2.47853399457392109539
2.35495030061599841531
2.37802016973381702414
2.29893244398195051303
1.55185609196625273754
1.56758325871231574133
1.51066553807495673745
1.59962042723227226837
1.54199205573135467162
1.58360184297229400485
1.48436368423043729692
1.52597347147137663015
1.42715262392294817140
1.46905575083401762626
1.67081287003856537865
1.60853891739422971696
1.65216065744295215190
1.54626496474989427732
1.58988670479861671225
1.63350844484733892514
1.42633086740507253332
1.47062899514982303728
1.48629791607748340532
1.51492712289457331920
1.53059604382223390928
1.61656443603980548573
1.55727377506342268276
1.57421778387095612217
1.24974836573832881470
1.29584094400506577571
1.30857510373272467596
1.38428946286332177351
1.39863736211118450115
1.34087207319429557728
1.36745298556889860464
1.41248411475812840621
1.35360623292195469958
1.45678224250287891017
1.44150052317081089903
1.49964540356250530806
1.57590472854863561381
1.60010773945096862469
1.61568053187708171592
1.64931198494411157540
1.66452092016651853612
1.62452793359568703480
1.69533195117922064199
1.65550624152815117895
1.67992643567286958906
1.64010072602180012602
1.75652962942234247556
1.76992142241112349055
1.72811043245568729532
1.79740451335848439030
1.75634193936729454677
1.78366296788480394042
1.71527936537610448120
1.74260039389361409690
1.67469120754890443692
1.70078940393817790167
1.85735763281716548256
1.81650446186296576911
1.84183112754026589997
1.77565129090876627771
1.80097795658606640856
1.82630462226336631737
1.72006701510094894836
1.73549162104399345985
1.74480207902267725473
1.76022668496572176622
1.81185456781092524281
1.77110329619058082251
1.78555335064302189707
1.73004072219939075694
1.70466149959459789542
1.68990014277131139764
1.60919659089707645094
1.54758031175558774528
1.54692263825274101130
1.41188210119708612567
1.41626774605061411805
1.47973120647633704650
1.42065339090414211043
1.48411685132986503888
1.42349212915460743289
1.48345917782701830490
1.17050044274390208088
1.19052763406793227219
1.25801157850809808281
1.21815787908850969856
1.28143045375166519939
1.20223707168971571946
1.33494683985259210424
1.34665627747437577355
1.26972101612988153008
1.24292229322125247215
1.36218607339871766726
1.29804127939236280120
1.30330819156254373858
1.22646329190885827742
1.23765538105107153477
1.28973586657201400030
1.35934733514825234479
1.35104192232790376593
2.22442022979899300950
2.23365944038697383789
2.15296884887616757354
2.25095920886304012853
2.17309134469969933434
2.24230932462500698321
2.09522348053635854015
2.16444146046166618902
2.01922055054837734644
2.08375086895085992467
2.29575920031731284254
2.22208612146086537109
2.28312727866842557489
2.14841304260441745555
2.20945419981197765935
2.27049535701953830724
2.00955979674084206366
2.06462521402367293888
2.07898641967262953756
2.11969063130650381410
2.13405183695546085687
2.26072728294128921789
2.18532492008477197132
2.19509299416302106067
1.80918316779802146321
1.85491834599926064264
1.87522849916248146585
1.95925895534950611498
1.97530029013861607723
1.90495424148732794833
1.94239414795166176475
1.99243004343972907044
1.92526439465054877154
2.04749546072256016771
2.03526188533748708664
2.10745705592143117713
0.56802898950268421174
0.54242246099124935554
0.48178951439552430980
0.49781712397448379948
0.44028810503704279844
0.52011979248286654975
0.38275908609960179740
0.46259077354542554872
0.32327630997793588286
0.40195782694970050297
0.43961500609957565588
0.38624968476133048068
0.45148034171135120740
0.33288436342308524996
0.39811502037310597668
0.46334567732312675892
0.22570023493049348740
0.28955630870987181247
0.27929229917678938255
0.35341238248925016530
0.34314837295616773538
0.48058140064880527920
0.42561475323186698239
0.40837902990618846211
0.05783126293061863210
0.12017235785729352138
0.11566252586123726420
0.25262231808686491652
0.24145110231745992024
0.18306664608540484940
0.17068138039586538968
0.23357566862397671770
0.17855681408934859222
0.29743174240335501501
0.31210509420853083107
0.36808573429442598135
0.99432967044450348837
0.90567003390930078677
0.93247890411579648084
0.73210989273916260434
0.75757556357559119320
0.81888996332423169555
0.78304123441201967104
0.84435563416066017339
0.81072668402729575199
0.87116450436715586747
0.50779700653424653112
0.51966234214602213815
0.57597900696891746186
0.55597253267725377235
0.61412794138002368971
0.53873680935157519656
0.65404444985404008861
0.67311891705959314702
0.59505347417447063130
0.62996109761117069503
0.75067927892775609955
0.66294642421294047718
0.69022307922201631136
0.58038177409371216608
0.60268444260209497187
0.63853718279648208345
0.72299382931248001860
0.69858458789602173589
1.83322903667468328770
1.80910044053220109284
1.79237586572048357425
1.76313165790598502802
1.74542164551737366551
1.78611604921909306043
1.72771163312876230300
1.76840603683048169792
1.71152179215399158352
1.75168146201876417933
1.69422627791238822326
1.67557406531677521855
1.71763968578621128991
1.64024830099665797079
1.68087617476104345116
1.65719230980419118815
1.74038567184609815897
1.72200391633351435061
1.69925793027362725951
1.59163189529469883965
1.67137297781312943457
1.64741400444703844919
1.63154726816205997153
1.62351721583965535878
1.60749863157967709526
1.66414508960404106119
1.68756281878790037609
1.70429390394490276606
1.90500011972914418124
1.88947361445224459864
1.95264260664112287991
1.86096674697913622154
1.92452898059978805279
1.87541680143157707406
2.05403052196111746142
2.00333656430112005964
1.98927975128045275710
1.93858579362045535532
1.82257496078680247820
1.95421228537404267911
1.89886477400724351661
1.88704663658486238020
1.84813464368286384243
1.83439309820918339256
2.23101015691273829589
2.16626111350816330514
2.15733707805629038035
2.04211064194809965855
2.11014581773464016123
2.03019076193508185568
2.09822593772162235837
2.01987527933796195967
2.08930190226974943357
1.96452776797116257512
1.97735987126743495423
1.91169687730351567367
2.68439666190944770108
2.71205844728468870031
2.64401834169006644260
2.76091692826232026903
2.69229666898035890910
2.73648768777350426262
2.62367640969839710507
2.66786742849154290269
2.55043695243307588782
2.59982732289692108907
2.85098577319948409681
2.77735593533583990933
2.82868242524701241081
2.70372609747219527776
2.75505258738336777924
2.80637907729454028072
2.54918590390761101716
2.60725744087909294677
2.62645600068990336950
2.66532897785057443230
2.68452753766138485503
2.78364800277843027487
2.71312295305644735066
2.73585402757255735651
2.30068456830279011172
2.37082239978461384311
2.38618811739456804233
2.49655841035398529115
2.51591932554021591173
2.43568800385743777781
2.46768701065108952974
2.53255261472391346445
2.45105372146739197703
2.59062415169539494997
2.56979786761930650840
2.64450269377448599073
2.36757040820578845697
2.35493848655690118932
2.43938161609426407139
2.33566618269366443883
2.42037315652428874913
2.34543425677191352818
2.59249243986105648574
2.51593702797766027857
2.50643279819267261743
2.42987738630927641026
2.30992377889077094011
2.47655523415739287074
2.40392456440717472432
2.39505634090087138333
2.32744188663510742643
2.31879200239707428111
2.79226384192715837429
2.73354191065483220768
2.71863400406351374272
2.58188487848093917165
2.66301717525794412467
2.57127731710082230165
2.65240961387782725467
2.56023161050421688145
2.63750170728650878971
2.48760094075399873503
2.49582523681255530335
2.41214886046573173672
1.67885308028675228620
1.59067106214195996827
1.67775621948266384642
1.50248904399716787239
1.58957420133787152849
1.67665935867857540664
1.34712324840383246283
1.43400637225248495099
1.42480614620050016761
1.52088949610113766120
1.51168927004915287782
1.67319911795880238436
1.67492923831868889550
1.59704430702997002278
1.59877442738985653392
1.14612018212802335704
1.23363131789221935897
1.20925105727634063513
1.39764423098187107186
1.38340636076665624010
1.32070896963737727248
1.27818715284008654898
1.36526480458524446249
1.29632870902149832659
1.67091046164641121585
1.67100805325425705306
1.60929418250492251019
1.60455517663861124689
1.67210358560652982973
1.53591123531841988736
1.60345964428633847021
1.47389666825775300651
1.54174577353700392734
1.45965879804253795271
1.52840036570977888530
1.45214792843389695065
0.00000000000000000000
0.05783126293061863210
0.00000000000000000000
0.16749333573312708001
0.10928643653576067263
0.11247448119849896842
0.00000000000000000000
0.00000000000000000000
0.05464321826788033631
0.05464321826788033631
0.37971999624964969389
0.31982498639972367638
0.32635467491140446317
0.20906205428876917241
0.21209466997640602504
0.26444352034424645215
0.21512728566404284991
0.26747613603188324927
0.22041376029726816865
0.27400582454356403606
0.00000000000000000000
0.00000000000000000000
0.05169130001908080196
0.00000000000000000000
0.05169130001908080196
0.10338260003816160393
0.05265999805717035132
0.00000000000000000000
0.10531999611434070263
0.05265999805717035132
0.15622232716346540204
0.15719102520155492364
0.10435129807625115328
0.16022364088919177627
0.10730321632505068763
0.16220686109990176127
0.92848612910669092724
0.85725826767881829760
0.93637290130345429695
0.78603040625094566796
0.86514503987558166731
0.94425967350021766666
0.66177676073904911913
0.73576318227087811330
0.72390358349499739354
0.80974960380270699645
0.79789000502682627669
0.98077119709832605299
0.96251543529927185983
0.89526040045051646921
0.87700463865146227604
0.49381120333097505704
0.56199320376564598778
0.54800740056237451370
0.71061032648779376419
0.68911076023642492405
0.63254488360267124847
0.60489208065071187193
0.67544376048773702159
0.61855908039939966336
1.05673439275230118817
1.03047947852489629739
0.96807475621709859759
0.91619253494102848023
1.00562533781161111968
0.85161387278373090748
0.94104667565431365794
0.79186188276144675591
0.87864195334651584712
0.77036231651007791577
0.83068173829321900747
0.74943018201956590474
1.89369465793134983400
1.93003168304553440748
1.86956606178886763914
2.00694777255970491225
1.94558102427041434979
1.96848972780261965987
1.88421427598112378732
1.90712297951332909740
1.82367296694355429665
1.84665735825666255110