VARIABLES = "X", "Y", "P", "delta_x", "delta_y", "monitor"
ZONE NODES=517, ELEMENTS=952, DATAPACKING=BLOCK,
ZONETYPE=FETRIANGLE
0.00000000000000000000
0.15938734451683003734
0.00000000000000000000
0.33921345569356831096
0.17601328243295863429
0.00000000000000000000
0.24295689352972002495
0.49747028890031214088
0.41201615884149550562
0.41782581918844724500
0.52111468399099192261
0.24238890491135312022
0.56673916332056617495
0.63685203220685659975
0.82567158972298038133
0.67326608007038335479
0.28826637204350818999
0.00000000000000000000
0.00000000000000000000
0.79505970549068072373
1.15710195104873481142
0.96397106150901179511
0.87309887082070325448
1.02405635499610858652
1.19126592864508684677
0.61982549205295356387
0.68174114634597371420
0.35455915516241698349
0.95452423365173844072
1.33805958860705076496
1.51268064558108261686
1.16430954473873993216
1.33285053348082915825
0.35722736765977147755
0.00000000000000000000
0.00000000000000000000
1.74184910749409915809
1.57459844409898153117
1.98840108229705991860
1.17781714548102312001
0.94958641188102288488
1.20484323103885304640
1.64928853694012089726
1.75064727836241762482
1.47291711589906570978
0.59184877365912169633
0.32375457087209430496
0.66028874267546122656
0.90817527447434809318
1.37730312028141832492
1.53690906161238949323
1.36578428151924557987
1.63739852334202318218
1.86936833635885180094
2.12679243536886142252
2.20924477222181314673
1.95485460121603771277
0.27365373342571713833
0.00000000000000000000
0.00000000000000000000
0.83507607914508363844
1.13974261883809302454
1.07894483983867828236
2.45458390566131967603
2.34658226822502546938
2.64032064916569275681
1.60196338538479610136
1.67593296090200505333
1.42138207259033033658
1.69985561497373849349
1.80503596700318857948
1.86678339697010553522
1.40470307695299356787
2.25996192318435840107
2.31640831641626432358
2.02421944269016229612
0.51284145456099905491
0.45643297794628490127
0.23549634910877828564
0.74944842972282144089
1.77020190669897936608
2.06925398595222453935
2.74771493073182071498
2.83969186943477813756
2.53400438558642271403
2.59003236447856810543
1.67624308994106185899
1.34826836338699784790
1.67761250234322933927
0.00000000000000000000
0.21633901397230384522
0.00000000000000000000
0.96480552190479940133
0.68786104996028840652
1.00278244009538775039
2.02097971852637581236
2.20577768754034364562
1.93894889639263712233
1.31481694044027452861
2.22630316816934037405
3.00720738276509669262
2.89843598191390139363
3.14217372098870306729
1.99309363680566531407
1.94220595720985822474
2.25766850213158409844
2.70824065752297382659
2.96308959867485111062
3.13263774548656703800
2.22497046797080644254
0.45251910102138381831
0.21534135572493667832
0.43506718002433664161
0.68464955568543828246
2.47216388685880872345
2.52149952635188556727
2.79268649329467999465
1.65914564533739272711
1.30338911630318787793
1.67442466078822560505
2.96053357896364222057
3.13172264237414665899
3.26736884921320003272
3.42109892685617777985
3.30014687363108460971
2.02074870387084404300
2.31681026004852119726
2.33036562046140094395
0.23346323726042442215
0.00000000000000000000
0.00000000000000000000
2.01356336793932477747
2.46141276880304005203
2.73497216987134184052
2.49417571704964791124
0.73559214386686466725
0.98998326439375161634
1.05850417934863694214
2.74756888577915647787
1.33020890575355310581
3.52501408179495001605
3.38569667340816682355
3.64320821197757860332
3.17648134563510886608
3.34708845889156636488
3.55694435143167231317
3.63417349610705864293
3.87664960820846449252
3.52125544942892876321
2.57581806473270269464
2.54548409926235574829
2.78834878344714187648
2.77107204599373435627
0.27184782256600392714
0.50761838822436322616
0.58795041796223079800
3.74642474153951754445
0.82190060347490068171
2.29729902107631600572
2.21708510201494712888
1.96569634928818803843
3.18723927410968821405
2.94839367257871343142
3.00018800678256658543
1.62629369482266805669
1.36588735772410330149
1.64184486091434567179
3.36700176471952783430
4.03896260678539320566
3.71928678890140540503
3.81247491683093331361
3.95986797337061746660
1.89999356841711497523
2.79676852655989138796
2.77802934507964360833
2.57069927875364578895
2.52003926880765094509
0.32246660056826070839
0.00000000000000000000
0.00000000000000000000
2.97991234141983607486
2.97789457094969067796
3.18147440215136922959
1.18081580529002594382
0.90649563104470831654
1.13208196042531072933
3.18394457399126329378
3.92872995157619264717
4.09100890793427041103
4.23948647900870678740
1.39557385147895374189
3.65416044030044506741
3.43228069654552792045
3.62508308630675646356
4.13856440134051872803
3.93688756524135641257
4.29476314819279991752
4.19090063246759747528
4.28147050221212754906
4.47717213052766105363
3.96867300724610982954
3.17528257859722229384
2.98511132837871651091
2.98947911836348678705
2.07816468409489285563
1.85717820907627273463
2.13210143891111991721
3.17699647578339439136
3.39683081598083713715
4.37356297495646106910
0.69202308590521877107
0.36236224949406958817
0.66349527520448325912
2.69357453478412356418
2.45317440206306569550
2.74698269273045880823
0.95580039864133337080
1.60232052487793175111
1.58487691487594006823
1.39184159797478201881
2.36556870301490107522
4.38455294777377968529
4.52740010436416806527
4.74486824303534771019
4.59218050025819213289
1.82161920327088999727
3.60185824506826657299
3.57212412588122774082
3.37983058647386824802
3.17503518927644945435
2.97113054604653337165
3.17424808806769931380
3.36351181081299666076
4.19898547510156561202
4.12853219131403825770
3.89156695995237633667
2.95566415941488047636
0.36097227349144556108
0.00000000000000000000
0.00000000000000000000
4.71816090681876687540
4.48775518470735068632
4.60658334370396804758
1.22256372299519600055
0.97597214555626321530
1.22102156573594977651
1.41618221916594944076
3.82990307637140769970
4.92927447991951961370
4.70721083883230484446
5.12338691313829741603
4.92803344354210359768
5.07132849433995325228
4.77350057359124058110
2.39624185994659688603
2.71701668369523696711
2.78058240734421113771
4.45957813463293017975
4.69092947206847199482
4.43254972806561386989
1.69392032986769613956
1.93347675490232973061
1.82159822613739086350
4.70650044978265835738
4.88193215558478499361
3.57191353819578383266
3.36350682858660210428
3.55536488973771991340
3.37735903369536805130
3.17732729138892588949
2.92132225282516078124
3.17613750392752258733
0.29523118967149303282
0.63254714915688103893
0.53436788779526522841
1.52238627501675027887
0.89853934719276029597
4.03256649532263899971
3.78328167692484518270
4.05787690393791944388
2.98645226034105792934
2.43011217248528899049
2.22043210147178937675
2.57479470833670642804
2.11102953728461395499
5.44460656166906087350
5.09839654917438345194
5.31106542673762849205
5.23983821656971660019
3.78288472989951962688
4.90910801240344074614
5.07522618583032336659
5.11845864984233145378
4.68892505757440591907
4.38137192597640190428
4.68933699697397798900
4.91127400733724339688
3.65632531358265877586
3.39488650067369901464
3.60288189898158206503
3.43078500238692907232
4.34782966553009053712
1.70270479151256193262
1.54544528316688078995
1.36416184167836695984
0.24849677805533587627
0.00000000000000000000
0.00000000000000000000
0.84292805190246733460
0.68824242372404231816
1.05158388355399967651
3.36564256663164540484
3.56239499263865466716
3.17361517191860231790
5.64010132918946904823
5.48609827631918633983
5.78497040121291661308
1.19064395534842981661
5.59908272006374740926
5.75280963599272787690
5.39268056585412480786
3.16023547622395151180
2.78173110145882862554
2.97148795141015131804
5.59846913928750034017
5.33950685781216360937
5.31615150725749696647
2.25325355855848075137
2.01463805672115991996
2.33973846538625718239
3.62994858955906618547
4.05816374043630023749
4.12932575319956374216
3.83034444937609519499
4.94819937939727694243
5.17161399117027453798
5.25156857256957199098
3.36342392880630169927
4.99772323883544178358
1.90639598241062557804
5.65648934787733637108
3.89306631677073378128
4.34814277049486452853
4.68793571417757970465
4.69027770530164556106
0.34427536932950830728
0.17851908258224949422
0.42679340998424636355
0.57743925916936067466
5.70848210251925802794
5.86906601524980509055
5.94008491220594425641
5.85890406433032673306
4.38191960219596765569
2.99137257848568038909
2.86729143621069804126
2.66419094525339472668
2.57162933632727241928
0.97412918021685834802
1.35758306665721795170
1.15922177568149309401
3.97144810854255014831
4.24266593692218219047
3.93312402950960215975
5.62878598757865677982
5.70611290316386998711
5.39055617074607784645
5.47928110745901264522
4.20132221939939221045
5.03619204201175119096
5.32738824524011711503
5.36118636781530444324
2.14913222325178754346
1.98796994181009023528
1.75934507325214606333
5.03737922153647676993
3.88223463292819914727
3.53546008486707652452
3.75127545927486805155
6.28318531000000035647
5.92624680114005553122
5.98982718062511576562
1.57519651408153560368
0.16139207344301853553
0.00000000000000000000
0.00000000000000000000
0.64508108772015493315
0.49815501118256294566
0.41468031568268348686
4.09560069954411254400
0.79691929712952658260
6.12223498958028233830
6.04012500467967861084
6.28318531000000035647
6.10513812276935929901
6.28318531000000035647
6.03646603281675453445
3.31432406626846676190
3.42802386173617401610
3.14731799398497003040
4.69143223905722361877
4.69337521264013890487
4.43369056379216175401
2.47495755261326833008
2.76075199658920711343
2.64012627076279349225
6.28318531000000035647
3.64051812371642613542
4.46192112317967648494
5.92461411781294167156
6.28318531000000035647
5.96659439866495944216
2.34604510707635993683
6.28318531000000035647
0.24291333652231517082
5.56747349869809404765
5.78741476288402800776
5.84337052420360247851
5.62273225191036463144
5.32948757468261824499
5.25487001051186730649
5.00054180334817388598
6.28318531000000035647
4.48126681245331415226
4.19567175062166519695
4.37674320259104820963
4.95156265607737822165
3.26999575349284121728
3.14067150216028911913
3.01756155906461431826
2.89755196863404496099
4.72113176595475625419
4.49051322078155035200
4.70922332716693059496
6.01694900307330815536
6.28318531000000035647
6.28318531000000035647
3.96379135559819895107
4.04250350502280575427
3.72396765220896108772
6.05629202907664421218
4.60993647184926569338
5.86175383338817823642
5.84339727607820869082
5.62313975490237893951
5.56899311523957862846
4.28564115338264794985
5.17486947838140398659
5.12117866572263569225
4.91431517205847434582
3.52769310170316607866
3.64178847465777399961
3.38418386622733713409
4.91196595677198644125
3.81335588902992839166
6.07399866406428134979
6.28318531000000035647
6.28318531000000035647
6.07388733690598581205
4.88448512704825255071
5.07330705203474430220
4.77674788041384967840
4.59590400092037310031
4.74796560306611947766
4.38833083001651935717
5.48140202864864534149
5.78795332919783511727
5.70749095505435999343
5.39288203449016645408
5.07729534091856216094
4.93051214179970731522
4.14029986283625639487
4.29438449761543239447
3.93569935427919759263
6.05593292771709723610
6.28318531000000035647
6.28318531000000035647
4.52916227777743163330
5.34148594407607824053
5.60030497599949139698
5.31784677727035681727
6.01717578518760554118
5.63058113573712670785
5.24151404353526650937
5.44599560410550243006
5.10090766636734294082
4.93182642630870571310
5.12492186637171531771
4.70821836772547097638
5.75362820642396588511
5.39414176231188768895
5.65781194800875031348
5.59997201142740053115
5.31275462414266552713
5.96747207182481176346
6.28318531000000035647
6.28318531000000035647
5.92596075001492916812
5.64090933530032589971
5.78508696993001425568
5.48700598351201218605
5.99052141836648743833
5.92741885451850336608
6.28318531000000035647
6.28318531000000035647
5.94017804148917427653
5.70909003926814229146
5.85926865143926622892
5.86913517159416109337
6.03676436028732776862
6.28318531000000035647
6.28318531000000035647
6.10513402015985473525
6.12218180922227794838
6.28318531000000035647
6.03990715127042410160
6.28318531000000035647

0.00000000000000000000
0.16068773932470334365
0.24318282774451246975
0.34190041810481652806
0.41378889904663013199
0.49825677987735378371
0.00000000000000000000
0.00000000000000000000
0.17732999436845309216
0.57170640837362685094
0.83342540588528157830
0.64122552433231139180
0.42198951978834331467
0.24534401701629696135
0.52695994131456624920
0.67963813666356487353
0.96979449371634751653
1.15928957412326627541
0.79678396011250018915
0.00000000000000000000
0.00000000000000000000
0.29163371264055154564
1.03519646244338181518
0.88337560533989623046
1.20544411793195416216
1.17705466374222766923
1.53064994139104193493
1.34878523621986379233
1.34785889424877258769
0.36109785088549273269
0.69447230041759766550
0.62827198152480001614
0.96742615531828035635
1.75288934704956145261
1.99020040318891444642
1.57633347309277627168
0.36484678353722999056
0.00000000000000000000
0.00000000000000000000
1.78933300751997670375
1.67855800483611616869
1.49800114276588391959
0.96366938303575566671
1.19477191774221513931
1.21768029277732892091
2.23831575597981125014
2.14123974144592077451
1.89234754890246814618
1.99163430731563861897
1.39127675427196062508
1.54977683098040741605
1.66008283280865454046
1.37994335637668563699
0.68588580843177826551
0.34303922249847162984
0.62792063219255311868
0.93512692224401405827
2.46827793624797919847
2.64200804694768454084
2.34861233498122601304
2.31292951699011695155
2.07682123196156664946
2.38890462650102275433
0.29074419673048274015
0.00000000000000000000
0.00000000000000000000
1.75636747549396465828
1.97635463216128992592
1.87262216763953448506
1.55923419324893952620
1.38348204931809704021
1.56931011274448928283
2.15291457515479134344
0.91811918220496158138
1.21346322769681780329
1.21302684309481945135
2.55789931270612891367
2.85385739382346503845
2.75506415174839780491
2.63646940623461434328
1.77135081492225165967
1.41597496891480623127
0.25219121110501391270
0.49091312100816386632
0.54945559127539767008
0.83569017132209888477
2.69281990998766884715
2.51160523240140687307
2.30248897176938482900
2.89927204437604135734
3.01199838798057584199
3.14227444159283697545
3.12455099411045900126
2.96966993257815481400
2.74301633502812736154
1.71003470804717050413
1.88714990050392805720
1.92377788052795262175
2.90649149247238103300
1.55988263259335280253
0.23129832942110484240
0.00000000000000000000
0.00000000000000000000
2.55775220530091429438
2.19749645661035231115
2.47067142782141102586
1.10311463984105384561
0.73362557177007958753
1.02804547130521783949
2.17690294330545652812
3.41502716755814583749
3.26581889753318543868
3.13491580471802766539
3.29100472040813007979
1.84013906001223004338
1.45441582309716777033
1.76168819411742516579
3.55301190754251772219
3.33640581908810052170
3.11986359111532873811
1.38699996086473120727
0.46215118531693494264
0.22587412249569066569
0.47655776117380571621
0.72547684070893070363
2.92630418768173683475
2.79886123871273539976
3.14047089665752476861
3.52145799745382426238
3.64117922498559254407
3.38466888316901082234
3.33617359597861495857
2.12766965717499090260
2.37777278184812290718
2.42761097393954328183
3.61730924630663031039
3.50091796568020408031
3.85406341519677697605
2.09381280905248745583
3.73317828284420905050
0.24544686598664366972
0.00000000000000000000
0.00000000000000000000
1.74683135694046742792
1.36700295165546337195
1.71821752637602775948
0.77828463902518274509
1.11716971109292040332
1.05257621052584382504
3.00340498351173890157
2.70475199452061065841
2.89561361839662634310
2.64695906567328576031
3.80593255428611909608
3.70849263437816434319
4.02686889087761112904
1.38709634715781926495
3.94173369714188615021
3.49056755861256284845
3.83134022959456999047
3.71924078138942526550
2.23862540343698634970
2.32595230049174350739
2.01510861650588646299
4.22233795021599345176
4.06613746066229708731
3.92093109943575646170
1.99001351576494633910
0.61065148008988334727
0.53209998993757412489
0.28307701044398003720
0.86176436784648957623
4.05212205375139067343
3.14823403210904517735
3.40258146766164681907
3.28686812860458132945
3.59563643070207072938
4.13281342099680593094
4.29482395510034820063
3.93488958827375112648
2.79935997128298907910
2.55656696423060303403
2.69289061416885422418
4.45560831086709452364
4.26280608439054731207
4.16947405985733965395
2.48491499855883146708
1.74742206380779929731
1.46580197833655945239
1.76153792151764276852
4.34813587313199256812
2.32552290827175278665
2.29822993219596183323
2.04508664724245292632
0.33434543517916592847
0.00000000000000000000
0.00000000000000000000
1.17856938635759034284
0.93823305996447592392
1.21768939083128224787
2.02450030440125372522
3.14719434319330426675
3.26609319344111570516
3.02918422743758819493
4.52108581240823070857
4.37392353944345746442
4.18502474652719325121
2.92384616283390386116
2.53292530313447716850
1.47855218305581126437
4.73680728246898130607
4.52311902491799244785
4.37476900375888000383
3.95552655657293206204
3.89066852097338511385
3.66673663206963240668
4.57666036656858121745
4.45241885374797963237
4.66813486698867308178
4.57109782560821109598
4.25489124851934530369
0.67964361106258763812
0.36829834434756641981
0.70180903598103427932
0.97954750664834033813
4.60478954201948997849
2.61379040343417479164
2.88161580412521356465
2.79034830439663616986
3.60676875425148502075
3.49953373339415430010
3.37282758673133953309
3.02494216849084285315
2.08911680142488709322
2.43675257881089057932
2.38206267817525141339
3.75667322447159390819
4.92699250805510491347
5.12669839194303822438
4.70997400549506384237
1.61172532904857845892
1.67719281860079227897
1.42309680225374379781
5.05043146446972013308
4.91313618811119212637
4.75372502297833410267
4.84668521019858467014
2.67775182335935557632
0.36649193248850903126
0.00000000000000000000
0.00000000000000000000
0.98242363260825160687
1.22773095011724597825
1.24176821979471951884
4.54571237223169877240
4.24891612597097356741
4.59211790322614987758
1.90489608368050200582
2.05519116805898161005
2.22053207631809668143
4.85866573598203554951
4.80697596840591678813
5.06677676863790171780
1.82673101893023526188
1.43266695784936670677
3.40956224157967602295
3.26779032418055237486
3.14548183901476940960
3.50454308261370206523
4.07780247200492240722
3.99766237748143860031
3.82120601529088599335
5.30971860721381894166
5.09284934454235660439
5.43923364837117340187
5.03934074531671605257
5.22613702417422398838
3.14182842852763011265
2.99481230859843483572
2.78024898906443684865
4.32223138568225095923
5.18265186034026648088
4.82630712420312146804
4.91910249951287426029
5.11312119668713283005
0.53492533285932830633
0.63761062274098656566
0.29569060719426232264
0.90020005904511279926
3.29301903664040285236
1.70827337229860254375
1.52447941695876365564
1.82327313458173767557
2.71482191603691536130
2.54832586474361288964
2.35204621252791579167
1.93188653011034028317
3.97056198847324326451
3.76451535923564017949
3.67953218471919640820
4.00638662328995653894
2.93453407471293603592
5.30363682308081418881
5.57959018873277035055
5.29727851707384989055
5.63780269034713121812
5.78551392910838657713
5.48810453310875523414
5.74500036106666023272
5.59252206984498467790
5.37823041355553677079
4.32654834654243991565
4.59512468423265207917
4.58880665016105382392
0.24907592372868248010
0.00000000000000000000
0.00000000000000000000
5.64271373774872042617
0.68711976621318704428
0.84025333202614671535
1.05202532134448167866
5.29673926764271296719
5.25995831062330942984
4.95484521550198397932
1.54219953266772447087
1.70205501226887068178
1.36529585048540758052
5.67727354876101486525
5.34872059548847289534
5.43241504586815882050
4.25955017626388254826
3.50442772917032074886
3.84863417291470355508
3.61089503584055426799
2.21358928708563462706
2.11078907801865511829
2.42642345778661017164
4.95325632194331788583
2.54314532237354606892
5.60522366592873044766
1.18600048973855942691
3.90855473858434443457
3.34610080974927903696
3.13865496453359460460
3.56297575259498477962
5.93784386790265283906
5.86811688459417979402
5.70457430715490954043
5.85395787551324531250
0.42675273494745580294
0.17845843684674414509
0.34364743132076425169
0.57575480388322297642
3.73368830960848185896
5.58207803762124399327
5.81772277335292198330
5.51984091199493764890
5.75945580499605203073
5.98576645689793984673
5.91527272144041571522
6.28318531000000035647
4.26791398238091712614
4.52589643141815489713
4.55122156711342995550
1.90502250775870085597
2.25417868193936721255
2.01747382184866230759
2.34004768135536789231
4.19756042058817246954
2.93068201718921272914
2.77322686468251022873
3.13893170589688930150
5.95093235937822395698
6.28318531000000035647
5.91391206577139350031
3.34666658077802869897
5.17527286458123558788
5.25410932867402014068
4.91532223869830087182
1.15660559853282274290
1.35381582250637944043
0.97170236406073784430
6.28318531000000035647
6.12115579069511195343
6.28318531000000035647
6.04019280642610745247
6.03257065790606894495
6.28318531000000035647
6.10402640150467323821
4.82423319948828055459
6.28318531000000035647
0.16137957511304418246
0.00000000000000000000
0.00000000000000000000
0.41385678944297082937
0.49700011894114026756
0.64334676715033378702
5.57957658370427189709
5.81577864942004740811
5.83658412838609930162
3.92729600485080521111
4.22504152996570869760
4.06222184533364316650
6.00209213348555792322
6.04305819536850119533
6.28318531000000035647
0.79478078220614301053
5.51385289954337487472
4.37900561093669615786
1.75846356926022351352
1.98945092381020427474
2.14918685300875811350
6.28318531000000035647
1.57376947864450533743
6.28318531000000035647
2.66325734752184484222
2.57245923435248569078
2.86450041639809338534
2.98330420774455129518
3.50428936856254891197
3.85082409747792020482
3.73460019082860750217
0.24270874902851169441
5.06410576805481316143
5.10783986938205192274
4.80585301599453096344
4.06514379917124202279
6.06190290045002111441
6.28318531000000035647
6.06207310169323410065
6.28318531000000035647
4.66851942652874107864
4.60642054976506720720
4.45368885627700006324
2.47665441835804855941
2.34967525435139945600
2.64325169870069220934
5.42600507317917202244
5.67387453767105043312
5.75621655245064811623
2.76033950755366763730
4.85806603057817731894
3.14057629488201062173
3.41622334262532811877
3.29656374195975709895
3.61566782212912984917
5.34443827011400873772
4.16671267342135553946
4.45458387857285753597
4.34734017010779094647
6.04254617791587289588
6.28318531000000035647
6.28318531000000035647
4.57105146611869006534
6.00114502567359853202
3.01585540759997527971
2.89971727916919252976
3.14214997026257947255
3.26678789220801402138
4.84704381727983157901
5.05144551162796151544
5.03897478118320041318
5.30165693906130819357
5.57881252456573406562
5.60290801301072161067
3.93818127880484425418
3.70760421372449311406
4.02523282235775159421
4.26059974536349450602
4.75428095724995891658
5.29744387130981575496
5.94959302948485557749
6.28318531000000035647
6.28318531000000035647
3.52222356206841347159
3.38464099519017436180
3.64159786385997508162
5.91313493481266494456
4.57647697937965070025
4.73731904295381323067
4.91414645559034113376
3.80596704591582790655
4.37433260565784287621
5.37964800118574171250
5.74599007170243325504
5.64328776832391110219
5.91535029643964893609
6.28318531000000035647
6.28318531000000035647
5.44005400140651751428
5.22773073706145030570
5.09372881002148147900
5.59365093342073294025
5.98619257411539962277
4.13309912923618938407
3.93564320631424857666
4.29563336845969789834
4.52362783031965420832
6.03302913012855679398
6.28318531000000035647
6.28318531000000035647
5.30963475121500039222
4.92744658848482774971
5.12655685767632629535
4.71056071276020293936
5.93832809812814943484
5.85472719025832422091
5.70531217333027740324
6.10427529571524463137
5.63806233478833096484
5.48783050747313616569
5.78570855957003793435
5.86846895131963375292
6.12144784324054569424
6.28318531000000035647
6.28318531000000035647
6.04055684275915005799

-0.40039062500000000000
-0.38073730468750000000
-0.37829589843750000000
-0.30859375000000000000
-0.32354736328125000000
-0.31134033203125000000
-0.37487792968750000000
-0.30310058593750000000
-0.32000732421875000000
-0.21386718750000000000
-0.07495117187500000000
-0.23388671875000000000
-0.21240234375000000000
-0.22998046875000000000
-0.07379150390625000000
-0.07934570312500000000
-0.09167480468750000000
-0.06054687500000000000
-0.19787597656250000000
-0.18463134765625000000
-0.04901123046875000000
-0.08837890625000000000
0.14593505859375000000
0.14630126953125000000
0.31585693359375000000
0.08862304687500000000
0.17401123046875000000
0.03826904296875000000
0.26660156250000000000
0.03967285156250000000
0.18157958984375000000
0.09033203125000000000
0.26806640625000000000
0.04260253906250000000
-0.07098388671875000000
0.00561523437500000000
0.04821777343750000000
0.01354980468750000000
-0.06085205078125000000
0.34106445312500000000
0.27801513671875000000
0.36834716796875000000
0.28662109375000000000
0.35504150390625000000
0.37054443359375000000
-0.02984619140625000000
-0.07952880859375000000
0.11938476562500000000
0.19317626953125000000
0.39312744140625000000
0.42083740234375000000
0.40032958984375000000
0.40350341796875000000
0.14123535156250000000
-0.06420898437500000000
0.00213623046875000000
0.21838378906250000000
-0.22869873046875000000
-0.32702636718750000000
-0.21307373046875000000
0.03863525390625000000
0.24859619140625000000
0.10223388671875000000
-0.21258544921875000000
-0.19958496093750000000
-0.31634521484375000000
0.40417480468750000000
0.35113525390625000000
0.37481689453125000000
0.41314697265625000000
0.38433837890625000000
0.38647460937500000000
0.28228759765625000000
0.10028076171875000000
0.18304443359375000000
0.29443359375000000000
-0.19293212890625000000
-0.30578613281250000000
-0.33850097656250000000
-0.12933349609375000000
0.38531494140625000000
0.31915283203125000000
-0.32763671875000000000
-0.28619384765625000000
-0.16375732421875000000
-0.06896972656250000000
0.07263183593750000000
0.12475585937500000000
0.22705078125000000000
-0.39703369140625000000
-0.39251708984375000000
-0.41735839843750000000
-0.14123535156250000000
-0.24066162109375000000
-0.06066894531250000000
0.33514404296875000000
0.23364257812500000000
0.31634521484375000000
-0.00738525390625000000
0.27099609375000000000
-0.38720703125000000000
-0.39062500000000000000
-0.41839599609375000000
0.05584716796875000000
0.21990966796875000000
-0.00854492187500000000
-0.00988769531250000000
-0.21771240234375000000
-0.11389160156250000000
0.12951660156250000000
-0.30755615234375000000
-0.39086914062500000000
-0.34570312500000000000
-0.24426269531250000000
0.13659667968750000000
0.14251708984375000000
0.03753662109375000000
0.06164550781250000000
-0.01739501953125000000
-0.00860595703125000000
-0.00006103515625000000
-0.33508300781250000000
-0.39184570312500000000
-0.30187988281250000000
-0.22558593750000000000
-0.06555175781250000000
-0.14880371093750000000
-0.20239257812500000000
-0.33551025390625000000
-0.31518554687500000000
-0.38964843750000000000
-0.06475830078125000000
0.04772949218750000000
-0.15405273437500000000
-0.08874511718750000000
-0.14581298828125000000
-0.07885742187500000000
0.07427978515625000000
-0.04260253906250000000
0.10278320312500000000
-0.33972167968750000000
-0.39923095703125000000
-0.33349609375000000000
-0.01324462890625000000
0.00311279296875000000
0.05957031250000000000
-0.12249755859375000000
0.10614013671875000000
-0.04895019531250000000
-0.29278564453125000000
-0.21466064453125000000
-0.34429931640625000000
-0.27032470703125000000
-0.22827148437500000000
-0.19982910156250000000
-0.04095458984375000000
0.11816406250000000000
0.01708984375000000000
-0.13909912109375000000
0.01379394531250000000
0.05987548828125000000
-0.16082763671875000000
-0.18096923828125000000
-0.07037353515625000000
0.32000732421875000000
0.24493408203125000000
0.20251464843750000000
-0.05426025390625000000
-0.02923583984375000000
-0.19116210937500000000
-0.23071289062500000000
0.04180908203125000000
0.21453857421875000000
-0.37115478515625000000
-0.33935546875000000000
-0.29028320312500000000
-0.19934082031250000000
-0.08642578125000000000
-0.06732177734375000000
-0.20153808593750000000
-0.36035156250000000000
-0.28112792968750000000
-0.33856201171875000000
0.32312011718750000000
0.17462158203125000000
0.22552490234375000000
-0.26391601562500000000
0.19506835937500000000
0.27258300781250000000
0.31549072265625000000
0.34362792968750000000
-0.09826660156250000000
-0.15032958984375000000
0.00372314453125000000
-0.08349609375000000000
-0.22113037109375000000
-0.07788085937500000000
0.25299072265625000000
0.19799804687500000000
0.34582519531250000000
0.14263916015625000000
-0.41741943359375000000
-0.40155029296875000000
-0.40332031250000000000
0.29888916015625000000
0.33306884765625000000
0.19042968750000000000
-0.39862060546875000000
-0.25659179687500000000
0.36706542968750000000
0.16674804687500000000
0.03137207031250000000
0.10919189453125000000
-0.12207031250000000000
-0.05664062500000000000
-0.25402832031250000000
0.26232910156250000000
0.38171386718750000000
0.40838623046875000000
0.38659667968750000000
0.11572265625000000000
0.12249755859375000000
0.04223632812500000000
0.17980957031250000000
0.28613281250000000000
0.37780761718750000000
-0.23120117187500000000
-0.31933593750000000000
-0.34564208984375000000
-0.33508300781250000000
-0.35504150390625000000
-0.39593505859375000000
-0.39257812500000000000
0.21459960937500000000
0.04687500000000000000
-0.02587890625000000000
-0.26721191406250000000
0.02459716796875000000
-0.07269287109375000000
-0.00109863281250000000
0.41894531250000000000
0.39044189453125000000
0.40441894531250000000
0.31585693359375000000
0.26104736328125000000
0.35968017578125000000
0.39007568359375000000
-0.16851806640625000000
0.04040527343750000000
0.00048828125000000000
-0.06274414062500000000
0.27795410156250000000
0.32586669921875000000
0.37652587890625000000
0.17413330078125000000
-0.01409912109375000000
0.04187011718750000000
0.34771728515625000000