VARIABLES = "X", "Y", "P", "U", "V", "err"
ZONE NODES=1985, ELEMENTS=3808, DATAPACKING=BLOCK,
ZONETYPE=FETRIANGLE
0.00000000000000000000
0.07969367225841501867
0.00000000000000000000
0.15938734451683003734
0.07969367225841501867
0.00000000000000000000
0.33921345569356831096
0.25761336906326348650
0.24930040010519916027
0.17601328243295863429
0.16770031347489433582
0.00000000000000000000
0.00000000000000000000
0.08800664121647931715
0.08800664121647931715
0.12147844676486001247
0.24295689352972002495
0.20117211902327503115
0.49747028890031214088
0.45474322387090382325
0.37021359121501606904
0.41201615884149550562
0.32748652618560775140
0.37561480726753193604
0.28570175167916278536
0.37851963744100780573
0.41782581918844724500
0.29691955081070292577
0.52111468399099192261
0.38175179445117252142
0.46947025158971955605
0.24238890491135312022
0.33010736204990021037
0.12119445245567656011
0.20920109367215589113
0.45297630950706724295
0.48937766108103086804
0.56673916332056617495
0.56716116055358434256
0.63685203220685659975
0.52443409552417608044
0.82567158972298038133
0.69620537652177327814
0.73126181096491849054
0.60179559776371138735
0.49228249125450673773
0.74946883489668181255
0.67326608007038335479
0.62000262169547482038
0.59719038203068763870
0.54554594962941527214
0.40469052801725002855
0.28826637204350818999
0.26532763847743068286
0.00000000000000000000
0.00000000000000000000
0.14413318602175409500
0.00000000000000000000
0.14413318602175409500
0.00000000000000000000
0.12119445245567656011
0.64626499719549646006
0.79505970549068072373
0.71595586884876860623
1.15710195104873481142
1.06053650627887341429
0.97608082826970776757
0.96397106150901179511
0.87951538349984625942
0.89482132561599603271
0.80041154685793425294
0.69710677740584758855
0.77318247544554330464
0.87309887082070325448
0.92486397235954442841
1.02405635499610858652
0.84866121753324597066
1.19126592864508684677
1.03218239973289493960
1.10766114182059771665
0.94857761290840592050
0.57047008802197274324
0.61982549205295356387
0.45404593204823084918
0.68174114634597371420
0.51815015075419534885
0.65078331919946363904
0.35455915516241698349
0.48719232360768527368
0.17727957758120849174
0.32141276360296255898
0.74646218143682840918
1.07289508114841258823
0.95452423365173844072
0.91381155223622090311
0.81813268999885613297
0.78717486285234605781
1.24758076982789267717
1.33805958860705076496
1.15101532505803128004
1.51268064558108261686
1.33849509515991127451
1.42537011709406669091
1.16430954473873993216
1.25118456667289534856
0.99499056723086010123
1.06414030312387586363
1.26205823106295800251
1.17845344423846887238
1.33285053348082915825
1.09418294986742425934
1.42276558953095588755
1.24858003910978454520
0.51948425700287259588
0.35722736765977147755
0.35589326141109423052
0.00000000000000000000
0.00000000000000000000
0.17861368382988573877
0.00000000000000000000
0.17861368382988573877
0.00000000000000000000
0.17727957758120849174
1.62726487653759077645
1.53995434805057485050
1.74184910749409915809
1.36585019757385817130
1.57459844409898153117
1.45632901635301603704
1.98840108229705991860
1.86512509489557953835
1.78149976319802072489
1.65822377579654034463
1.17781714548102312001
1.06370177868102300245
1.19133018825993808321
0.94958641188102288488
1.07721482145993796564
1.20484323103885304640
0.81566377911349829954
0.95205532276638060729
1.19805457984196994659
1.07968373234529568805
1.58098459126060175706
1.64928853694012089726
1.49106953521047502775
1.75064727836241762482
1.61178219713074177832
1.69996790765126926104
1.47291711589906570978
1.56110282641959319250
1.33209152227207638930
1.40288382468994754504
0.59184877365912169633
0.45780167226560797289
0.62606875816729146145
0.32375457087209430496
0.49202165677377773800
0.66028874267546122656
0.16187728543604715248
0.34049096926593291901
0.67101494451071741487
0.50875805516761629654
0.75001202406673495027
0.78423200857490460436
0.90817527447434809318
0.80493757727824211123
1.04299620997768549557
0.92888084317768548903
1.28428452446325258585
1.37730312028141832492
1.29107317566013568566
1.53690906161238949323
1.45134667156581764758
1.45710609094690379806
1.36578428151924557987
1.37154370090033195240
1.27180071350013434994
1.28531375627904931314
1.42511011809024212837
1.69402290085222029248
1.63739852334202318218
1.55515781962054444598
1.58715379247720633771
1.50735082181172064253
1.69102449096996720890
1.80560872192647536849
1.86936833635885180094
2.05759675883296067056
2.12679243536886142252
1.93432077143148029030
2.20924477222181314673
2.03930655429033258486
2.16801860379533728462
1.99808038586385672275
1.75932843664948634910
2.08204968671892531873
1.95485460121603771277
1.91211146878744475686
1.85275093978922766880
1.80207156907807930502
0.43275125354241938958
0.27365373342571713833
0.29870415214890572164
0.00000000000000000000
0.00000000000000000000
0.13682686671285856916
0.00000000000000000000
0.13682686671285856916
0.00000000000000000000
0.16187728543604715248
0.71346242640210266739
0.87162567680971592132
0.83507607914508363844
1.15877988215955807227
1.13974261883809302454
1.02395894665622044784
1.07894483983867828236
0.95701045949188090489
1.10934372933838565345
0.98740934899158827598
2.33191433894156663342
2.29068817051509032723
2.45458390566131967603
2.16749167526104269399
2.34658226822502546938
2.23668735179694344595
2.64032064916569275681
2.54745227741350621642
2.49345145869535933514
2.40058308694317279475
1.56943622349859279730
1.60196338538479610136
1.48387383345202072960
1.67593296090200505333
1.54865751674616758393
1.63894817314340057735
1.42138207259033033658
1.51167272898756310795
1.29959960903567672830
1.39358317705478795823
1.61838233829306399336
1.66862706915788083784
1.69985561497373849349
1.77784162268280310215
1.80503596700318857948
1.72121724517260599185
1.86678339697010553522
1.78331950597192201435
1.83590968198664716837
1.75244579098846342546
1.54031801892749919958
1.40470307695299356787
1.41304257477166195223
1.24182395839583592512
1.27222284789554329620
1.28056234571421168056
2.23460334770308577390
2.25996192318435840107
2.10740826220019794590
2.31640831641626432358
2.17031387955321353189
2.28818511980031136233
2.02421944269016229612
2.14209068293726012655
1.88743336052628984945
1.98953702195310011547
0.55234511411006037562
0.51284145456099905491
0.39324759399335806886
0.45643297794628490127
0.34596466352753157958
0.48463721625364197809
0.23549634910877828564
0.37416890183488865640
0.11774817455438914282
0.25457504126724772586
0.91419663478074986163
0.74944842972282144089
0.79226225443395259518
0.60294070383455311557
0.63114494214191019239
0.67395876685304134668
1.81849265183454233963
1.77020190669897936608
1.73502876083635904081
1.72306743380049232073
1.68608264604188784475
1.65090950017926729743
1.96801869146116503728
1.93714497647770667044
2.06925398595222453935
1.91462770484667554882
2.19283115118424465351
2.04673671432119341773
2.69401778994875673590
2.74771493073182071498
2.60114941819657019551
2.83969186943477813756
2.68684812751060064784
2.79370340008329964832
2.53400438558642271403
2.64085965815912171450
2.37162457890411815242
2.49429414562387119503
2.45322034044741599246
2.42499714383146347529
2.59003236447856810543
2.39698315438539033551
2.71486211695667289945
2.56201837503249540973
1.67624308994106185899
1.51225572666402996447
1.67692779614214559913
1.34826836338699784790
1.51294043286511348256
1.67761250234322933927
1.21360660161283817615
1.37648572016999581891
1.67677273162261730732
1.54115778964811145357
0.00000000000000000000
0.11774817455438914282
0.00000000000000000000
0.33638599595929435937
0.21633901397230384522
0.22591768154054106543
0.00000000000000000000
0.00000000000000000000
0.10816950698615192261
0.10816950698615192261
0.96480552190479940133
0.82633328593254384842
0.98379398100009352035
0.68786104996028840652
0.84532174502783807846
1.00278244009538775039
0.57214701395328670941
0.71865473984155492371
1.04086363996703301638
0.87611543490910459564
1.94388155774824067379
2.02097971852637581236
1.89559081261267747820
2.20577768754034364562
2.07236329196649027296
2.11337870303335950695
1.93894889639263712233
1.97996430745950657837
1.80744092864732097681
1.85457540154580824421
1.49553001519066830483
1.31481694044027452861
1.33154265191363618825
1.13981123117253702048
1.15879969026783102848
1.17552540174119268812
2.04511685223930017585
2.27135574229280212677
2.22630316816934037405
2.14777857706078245670
2.21604042785484178779
2.12364144334785809320
2.92344962609993741509
2.87746115674845892585
3.00720738276509669262
2.76937831553979707522
2.89843598191390139363
2.82307545632286105430
3.14217372098870306729
3.07469055187690010200
3.02030485145130223046
2.95282168233949882108
1.83466836337336358653
1.83535306957444732667
1.99309363680566531407
1.80906945905593152801
1.94220595720985822474
1.80990922977654378201
2.25766850213158409844
2.12538106946862459523
2.09993722967072127261
1.96764979700776176941
2.51232448696961885304
2.64913651100077096601
2.70824065752297382659
2.90139073405481440204
2.96308959867485111062
2.77656098157670960802
3.13263774548656703800
2.92043920150477021025
3.04786367208070885226
2.83566512809891246860
2.21537407775557504408
2.22497046797080644254
2.08195968218172167141
2.24131948505119549253
2.08358821259033222262
1.94057742680124767354
0.45251910102138381831
0.33393022837316022056
0.44379314052286022996
0.21534135572493667832
0.32520426787463663221
0.43506718002433664161
0.10767067786246833916
0.21584018484862027565
0.44575007898531077144
0.32570309699832022954
0.82472753879511884190
0.68464955568543828246
0.68625530282286328898
0.56858432835341110589
0.55985836785488740652
0.56146411499231252407
2.33897078719957640658
2.34923352751407454875
2.47216388685880872345
2.41895392138407494542
2.52149952635188556727
2.37390134726061319270
2.79268649329467999465
2.63242519007674413700
2.65709300982328278096
2.49683170660534692331
1.65914564533739272711
1.48126738082029030252
1.66678515306280905506
1.30338911630318787793
1.48890688854570685251
1.67442466078822560505
1.13409731910399358412
1.30910302837173109225
1.67533387536464362100
1.49462080061425006683
2.87661003612916132965
2.74101655265776411596
2.96053357896364222057
2.61487009193742991897
3.04658566222510440724
2.83438711824330802358
2.98570725590446262032
3.06946501256962189785
3.13172264237414665899
3.20477128510095177205
3.26736884921320003272
3.13728811598914836267
3.42109892685617777985
3.27641078461516244147
3.34423388803468890629
3.19954574579367356790
3.04740612052449888481
3.36062290024363097274
3.30014687363108460971
3.21593475800261563435
3.21639230955882560181
3.13161823615296786016
1.84849589690595283997
2.00692117033825478956
2.02074870387084404300
2.28723938109005242580
2.31681026004852119726
2.15495194842709336669
2.33036562046140094395
2.17555716216612271552
2.32358794025496084856
2.16877948195968262013
0.34299116914090410635
0.23346323726042442215
0.22440229649268056411
0.00000000000000000000
0.00000000000000000000
0.11673161863021221107
0.00000000000000000000
0.11673161863021221107
0.00000000000000000000
0.10767067786246833916
1.83635450663835886331
1.84399401436377519126
2.01356336793932477747
1.84758668232953482402
2.17196449420036286071
2.01715603590508418819
2.33359522817169207087
2.46141276880304005203
2.34319161838692302524
2.73497216987134184052
2.61457394346049465383
2.59819246933719094628
2.49417571704964791124
2.47779424292634420368
2.37592210959061578279
2.35957309251022717689
0.59405562244412424278
0.71012084977615153036
0.73559214386686466725
0.97739439314927545333
0.98998326439375161634
0.83731641003959489389
1.05850417934863694214
0.89704816160775080469
1.02424372187119416822
0.86278770413030814179
2.46678832783092438774
2.77012768953691823626
2.74756888577915647787
2.60986638631898237861
2.74127052782524938124
2.60449082729109804291
1.49467727554547291646
1.33020890575355310581
1.31679901102837049187
1.19435654255109513500
1.16009608507365236107
1.14668619034846974714
3.47305650432556411999
3.39619146550407524643
3.52501408179495001605
3.26393519719843494542
3.38569667340816682355
3.32653276131068320609
3.64320821197757860332
3.58411114688626408764
3.51445244269287293548
3.45535537760155841980
2.98458391946489420832
3.06850746229937554332
3.17648134563510886608
3.23986310218906670144
3.34708845889156636488
3.15381101892760451477
3.55694435143167231317
3.36671284853339081167
3.45201640516161933903
3.26178490226333739344
3.52763621148161821139
3.63417349610705864293
3.46716018486907184837
3.87664960820846449252
3.69895252881869662787
3.75541155215776178977
3.52125544942892876321
3.57771447276799392512
3.32694659745774767856
3.41070116153000668646
2.45309184259705181930
2.44631416239061216800
2.57581806473270269464
2.40157630069696992337
2.54548409926235574829
2.43114717965543825073
2.78834878344714187648
2.68208342408992228556
2.66691644135474881239
2.56065108199752922147
2.77971041472043811638
2.65827807262804505228
2.77107204599373435627
2.51982990815600160772
2.75302210793253809840
2.63262388152169091171
0.13592391128300196357
0.25265552991321416076
0.27184782256600392714
0.48006874462287352223
0.50761838822436322616
0.37054081274239381028
0.58795041796223079800
0.42989912026411736257
0.54778440309329701208
0.38973310539518357665
3.65168454648559492881
3.54675660021554195467
3.74642474153951754445
3.43417195416024778609
3.81153717487399124053
3.63384009548422337588
0.70492551071856568434
0.66475949584963189842
0.82190060347490068171
0.62160526604561394670
0.94020239141176875641
0.77874637367088261897
2.31383232076885825279
2.29729902107631600572
2.15543119450782061364
2.21708510201494712888
2.09139072565156780570
2.25719206154563156730
1.96569634928818803843
2.13149768518225180003
1.81242099731279049379
1.98962985861375640795
3.18723927410968821405
3.06781647334420082274
3.09371364044612739974
2.94839367257871343142
2.97429083968064000842
3.00018800678256658543
2.84168292122502741393
2.84798127917893495464
2.89643725003862329004
2.87387844628086153165
1.62629369482266805669
1.49609052627338567909
1.63406927786850686424
1.36588735772410330149
1.50386610931922448664
1.64184486091434567179
1.21219576853637001079
1.34804813173882820365
1.65049525312586919945
1.48602688333394938880
3.27712051941460824622
3.18359488575104698782
3.36700176471952783430
3.08833467620883794780
3.46197305807559985169
3.27174155517731835019
4.03896260678539320566
3.87912469784339908330
3.92571876180816303759
3.71928678890140540503
3.76588085286616935932
3.81247491683093331361
3.57019285787879159244
3.62215043534817748849
3.72784156440425595846
3.66874449931294144278
3.67673014250423202398
3.99941529007800511408
3.95986797337061746660
3.83957738113601143581
3.91825879078954120160
3.79702073473883805477
2.05853933521603105206
1.89999356841711497523
1.93284495885265150683
1.76314363161989140494
1.77091921466573021249
1.80377060510126696613
2.79255865500351685426
2.79676852655989138796
2.68629329564629681926
2.77802934507964360833
2.67436431191664469864
2.78739893581976749815
2.57069927875364578895
2.68373390265676858846
2.45053244960752358850
2.57325867174317401975
2.64903430694364727671
2.52003926880765094509
2.54536927378064836702
2.36856218541129903699
2.40866914494198347541
2.43399914991498089734
0.45520850926524575319
0.32246660056826070839
0.29715721156713231776
0.00000000000000000000
0.00000000000000000000
0.16123330028413035420
0.00000000000000000000
0.16123330028413035420
0.00000000000000000000
0.13592391128300196357
2.88413056243348897567
2.87549219370678521557
2.97991234141983607486
2.85643337041051648129
2.97789457094969067796
2.87448330847171273916
3.18147440215136922959
3.08069337178560243018
3.07968448655052995377
2.97890345618476359846
1.18081580529002594382
1.04365571816736713018
1.15644888285766844760
0.90649563104470831654
1.01928879573500941191
1.13208196042531072933
0.74722302450346955727
0.86419811725980455464
1.09529306988697383574
0.97699128195010565001
3.18559192405047575392
3.18394457399126329378
3.06616912328498836260
3.18270948807131626168
3.08091957247047698587
2.96314412176420205469
3.74283715150393270221
3.83757734655785487377
3.92872995157619264717
3.98382925807136745178
4.09100890793427041103
3.91871682473689375570
4.23948647900870678740
4.08410821529244927319
4.16524769347148904330
4.00986942975523152910
1.28819482838448973183
1.26382790595213223561
1.39557385147895374189
1.24898465907470690439
1.51093377315081101031
1.38073060460152863271
3.65416044030044506741
3.54322056842298671597
3.63962176330360076548
3.43228069654552792045
3.52868189142614241405
3.62508308630675646356
3.30975998532760806725
3.39964123063252809942
3.59101371886921416632
3.49604242551314214893
4.08876350406295596684
3.97551965908572579878
4.13856440134051872803
3.79004788860946728590
3.93688756524135641257
3.87468124103614464104
4.29476314819279991752
4.21666377476665932278
4.11582535671707816505
4.03772598329093757030
4.03377512033803142799
4.07538430291910724890
4.19090063246759747528
4.16021655449875993327
4.28147050221212754906
4.12066923779137272987
4.47717213052766105363
4.33403638149762926446
4.37932131636989474543
4.23618556733986295626
3.81141672377327722643
3.79687804677643292450
3.96867300724610982954
3.77690651894147455536
4.10407974312740808642
3.94870147941115146040
3.17528257859722229384
3.08019695348796940237
3.08238084848035454044
2.98511132837871651091
2.98729522337110164898
2.98947911836348678705
2.88157033672918005962
2.89093992746930394944
2.88891395090531410972
2.89312382246168908750
2.07816468409489285563
1.96767144658558290615
2.10513306150300660846
1.85717820907627273463
1.99463982399369621490
2.13210143891111991721
1.74173595194947039566
1.87858588874669374391
2.17459327046303352304
2.01604750366411744622
2.98469572989166120891
3.17923543896738181047
3.17699647578339439136
3.07845440860161545515
3.17613952719030834260
3.08323779707344058920
3.52549562814064110228
3.39683081598083713715
3.41455575626318275084
3.28915260906610296132
3.29038769498604999342
3.30811263526839560711
4.14095477020093394316
4.42536755274206150546
4.37356297495646106910
4.28223180371202971628
4.30652472698258392825
4.23228594144536529598
0.69202308590521877107
0.52719266769964412411
0.67775918055485107061
0.36236224949406958817
0.51292876234927642365
0.66349527520448325912
0.18118112474703479409
0.34241442503116514828
0.62572284658335708407
0.49298093788637198376
2.69357453478412356418
2.57337446842359440780
2.72027861375729118620
2.45317440206306569550
2.60007854739676247391
2.74698269273045880823
2.33512975203900641219
2.48660683543535832030
2.76250601890505098623
2.63351098076905465462
1.06830810196567971282
0.95580039864133337080
0.93114801484302089918
0.82391174227327601542
0.80964783692290831496
0.78499545312459573232
1.61430710985029990390
1.60232052487793175111
1.49894718817844285752
1.58487691487594006823
1.48835925642536093250
1.59359871987693590967
1.39184159797478201881
1.49708106142635699598
1.28632870163240387029
1.39370772472686788035
2.22186669355489696542
2.24883507096301027417
2.36556870301490107522
2.29263792048709280635
2.52957161889951231970
2.40937155253898360741
4.21175777727958688956
4.26155867455714876257
4.38455294777377968529
4.41108162627848443549
4.52740010436416806527
4.33298225285234295256
4.74486824303534771019
4.56471059540456369774
4.63613417369975788773
4.45597652606897387528
4.66852437164676992154
4.59218050025819213289
4.48836672401598590909
4.53467631539292703735
4.43682550123515984097
4.33301172499295361717
1.72974936697710224287
1.94989194368289142645
1.82161920327088999727
1.83939870617358147697
1.70324805907341492173
1.71196986407441098521
3.62800934268435604224
3.60185824506826657299
3.49934453052455207711
3.57212412588122774082
3.47597735617754821646
3.58699118547474693486
3.37983058647386824802
3.49084441577106741050
3.28065249431261873880
3.38833070122735247054
3.17503518927644945435
3.07308286766149141300
3.17464163867207460612
2.97113054604653337165
3.07268931705711612068
3.17424808806769931380
2.87457994556308848999
2.97812093721262494128
3.17476533333246102586
3.07967970822320769031
3.46781796834711197874
3.36351181081299666076
3.37167119864343245439
3.26939719470510947730
3.27025414329819552606
3.27841353112863131969
4.21923597705513664380
4.19898547510156561202
4.08382924117383794282
4.12853219131403825770
4.01004957563320729719
4.16375883320780193486
3.89156695995237633667
4.04527621752697097435
3.77286370012641070204
3.93011998359924330515
2.82461934709950224232
2.85132342607266942025
2.95566415941488047636
2.85905661938849586790
3.06534967434566496536
2.96339735273070692401
0.52649767969833216608
0.36097227349144556108
0.36166726149275757463
0.00000000000000000000
0.00000000000000000000
0.18048613674572278054
0.00000000000000000000
0.18048613674572278054
0.00000000000000000000
0.18118112474703479409
4.71816090681876687540
4.60295804576305833677
4.66237212526136701740
4.48775518470735068632
4.54716926420565936695
4.60658334370396804758
4.36362083185802873686
4.43065907983190587771
4.54187773711581499470
4.49007315933021455834
1.22256372299519600055
1.09926793427572966344
1.22179264436557288853
0.97597214555626321530
1.09849685564610655142
1.22102156573594977651
0.83399761573074093768
0.96588627209879829305
1.20091868551298786016
1.08841098218864162916
1.50052956702094464347
1.41618221916594944076
1.40401190857036572979
1.31937297108057283168
1.31860189245094971966
1.30643158185536600868
3.97921763384272297870
3.82990307637140769970
3.86073501816189201818
3.70101360112631772026
3.71588066071983735839
3.74671260251032123278
4.83707136147743366195
4.72833729214184383949
4.92927447991951961370
4.50098699351255238099
4.70721083883230484446
4.61730547159823601078
5.12338691313829741603
5.02633069652890895895
4.91529887598530113024
4.81824265937591178499
4.83645084328872520985
4.92803344354210359768
4.76010697190014830937
5.07132849433995325228
4.92241453396559691669
4.99968096894102842498
4.77350057359124058110
4.85076700856667208939
4.62533635205945081736
4.68284053692471680108
2.23720327202074464878
2.38090528148074920267
2.39624185994659688603
2.70529560923968048769
2.71701668369523696711
2.54129269335506879912
2.78058240734421113771
2.58841213364540401187
2.74879954551972405241
2.55662927182091692657
4.34953230682081848357
4.45957813463293017975
4.32928180486724833997
4.69092947206847199482
4.56173960006704248826
4.57525380335070153137
4.43254972806561386989
4.44606393134927202482
4.28054095968982650788
4.31576760158358929687
1.63939862237181799287
1.75776976656929306841
1.69392032986769613956
2.00582071949861129312
1.93347675490232973061
1.87754797908660986394
1.82159822613739086350
1.75775927800254350153
1.87753749051986029706
1.81369854238501293509
4.71233067830071306048
4.70650044978265835738
4.59712781724500452185
4.69871496092556562019
4.58303929220779426856
4.47366665967014043304
4.80004653120177593451
4.74425774964437607650
4.88193215558478499361
4.69004195864760475843
4.97663032496236912294
4.82771636458801278735
3.57191353819578383266
3.46771018339119319052
3.56363921396675209508
3.36350682858660210428
3.45943585916216100884
3.55536488973771991340
3.26939470359191197701
3.36350931969979960456
3.56374450780947382711
3.45943835027535850912
3.27619711148590875283
3.27580356088153390459
3.37735903369536805130
3.26887745832715070904
3.47463628594557594198
3.37043293114098485574
3.17732729138892588949
3.04932477210704355741
3.17673239765822401637
2.92132225282516078124
3.04872987837634168429
3.17613750392752258733
2.80744839380464217271
2.93849320612002085085
3.17558634660198624289
3.06590083167120130980
0.14761559483574651641
0.32810173158146926919
0.29523118967149303282
0.66228511753104990500
0.63254714915688103893
0.49675971132416330001
0.53436788779526522841
0.41479953873337915837
0.58345751847607307816
0.46388916941418700812
1.55505127451682279016
1.67199225057707057118
1.52238627501675027887
1.60815330244222320921
1.37247499900597302869
1.46928424709134985982
1.06055153509397825928
0.89853934719276029597
0.93725574637451170013
0.71645361749401281770
0.76554324817482066745
0.80425964735657218263
4.03256649532263899971
3.90792408612374231325
4.04522169963027877770
3.78328167692484518270
3.92057929043138209124
4.05787690393791944388
3.67770290140303668380
3.80659237664812621915
4.09320454762597840670
3.94388999015466357179
3.08188977586499213146
2.98645226034105792934
2.95388725658310935529
2.88351733384263475557
2.85173447201814767027
2.81916946826019909622
2.43011217248528899049
2.32527213697853918362
2.50245344041099748722
2.22043210147178937675
2.39761340490424768035
2.57479470833670642804
2.14929839278334089414
2.30833698070919313139
2.67768855784045900492
2.48551828414165143499
2.27057085488495147274
2.11102953728461395499
2.16573081937820166587
1.96631388171100240925
2.02225314609347162076
2.07695442818705977572
5.44460656166906087350
5.27150155542172171863
5.37783599420334468277
5.09839654917438345194
5.20473098795600641608
5.31106542673762849205
4.92163239610486513698
5.01383551454695108873
5.21722616993796250995
5.12016995332857405288
5.01321499635824352481
5.34222238911938873684
5.23983821656971660019
5.16911738287205047016
5.15558335545483537032
5.08393583005591054302
3.66932328333128232600
3.90772561261107931330
3.78288472989951962688
3.78308320341218262683
3.67739913404765150773
3.66912480981861977014
4.81363445961110336668
4.89552008399411242578
4.90910801240344074614
5.07327734008513786534
5.07522618583032336659
4.97857917070755462419
5.11845864984233145378
5.01378333112288565587
5.09684241783632785427
4.99216709911688205636
4.68892505757440591907
4.53514849177540391167
4.68913102727419150995
4.38137192597640190428
4.53535446147519039073
4.68933699697397798900
4.25495205864521963690
4.40696082702100788708
4.69013323452122499191
4.56094336251979548535
4.80780423109304955176
5.01486632858978786942
4.91127400733724339688
4.91019100987034207151
4.80110173970285813994
4.80888722855995087713
3.65632531358265877586
3.52560590712817889525
3.62960360628212042045
3.39488650067369901464
3.49888419982764053984
3.60288189898158206503
3.28496084497507423450
3.38612276718453353297
3.58739771858868294885
3.49012046633847505817
3.54355515798479370204
3.43078500238692907232
3.41283575153031382143
3.30405614688792770295
3.30346125315722582982
3.28551200230061102303
4.19019808042636476841
4.20285328473400454641
4.34782966553009053712
4.21962441495716067408
4.51837736155224867218
4.36460079575324577661
1.76215150882497639806
1.70270479151256193262
1.61254553326465610574
1.54544528316688078995
1.45480356242262387489
1.62407503733972147231
1.36416184167836695984
1.53343331659546455725
1.29336278233678148020
1.44327405834755850833
0.39143233292530055234
0.24849677805533587627
0.27186398386341448230
0.00000000000000000000
0.00000000000000000000
0.12424838902766793813
0.00000000000000000000
0.12424838902766793813
0.00000000000000000000
0.14761559483574651641
0.84292805190246733460
0.76558523781325482638
0.94725596772823350555
0.68824242372404231816
0.86991315363902099733
1.05158388355399967651
0.61130515575965382880
0.79339088545840130706
1.13707380327459794955
0.97506161537337998624
3.27148492901028564717
3.36564256663164540484
3.17604741348635144504
3.56239499263865466716
3.36800508227862849253
3.46401877963515003600
3.17361517191860231790
3.26962886927512386137
2.97709878963140672781
3.08003371612983034566
5.54235394542926496086
5.47558337796354877014
5.64010132918946904823
5.30474259472874187793
5.48609827631918633983
5.39858185152840697185
5.78497040121291661308
5.71253586520119327474
5.63553433876605147645
5.56309980275432813812
1.01678600362544857560
1.12111391945121474656
1.19064395534842981661
1.20787286261618342920
1.36804461925765519226
1.27740289851339827720
5.52184464086640414138
5.59908272006374740926
5.41946046831673200472
5.75280963599272787690
5.57274510092342634238
5.67594617802823719899
5.39268056585412480786
5.49588164295893655265
5.23200453009703903007
5.31625939121192025993
3.16023547622395151180
2.97098328884139029071
3.06586171381705163697
2.78173110145882862554
2.87660952643448997179
2.97148795141015131804
2.60592163697205858597
2.67826290489776752679
2.87603517937718144992
2.77314132987342887304
5.59846913928750034017
5.46898799854983153068
5.45731032327249820923
5.33950685781216360937
5.32782918253483028792
5.31615150725749696647
5.22898275382724797566
5.20736652182124348798
5.19374000079872466529
5.19568884654391016653
2.25325355855848075137
2.13394580763982055771
2.29649601197236918892
2.01463805672115991996
2.17718826105370855117
2.33973846538625718239
1.91811814142927539173
2.06283379700288715952
2.38492531893577286439
2.22538400133543579074
3.64313695157086225862
3.62994858955906618547
3.53036679597299762889
3.59617179109886020427
3.49779557809535557311
3.39821378450928701653
4.04536511787947006269
4.05816374043630023749
3.92052423516790993219
4.12932575319956374216
3.97983510128782924653
4.09374474681793198982
3.83034444937609519499
3.94425409490619749420
3.70112899378593951383
3.80661458963780763298
4.81956442573287446862
4.92973669336726061374
4.94819937939727694243
5.14503632050630343997
5.17161399117027453798
5.04144399925375896743
5.25156857256957199098
5.09988397598342402262
5.21159128186992326448
5.05990668528377618429
3.26182970251512660553
3.16745594010822628661
3.36342392880630169927
3.07255156166437704002
3.46290946072247818321
3.26851955036245200859
4.81876818818562746571
5.12464590570250688728
4.99772323883544178358
4.97296130911635891891
4.84332414820492385132
4.84353011790470944220
2.07982477048455294266
1.90639598241062557804
1.96051701956589274900
1.72592063278875329502
1.80455038696159375533
1.85867142411686092629
5.35441603655581133125
5.70464949193503212399
5.65648934787733637108
5.52458495686573058947
5.62747924358241835563
5.48632042756741711287
4.01119603498514898376
3.89306631677073378128
3.86170538307341448814
3.77469581517669627857
3.74797410787615792316
3.71661317417883863001
4.19035463290875220821
4.34798621801247797691
4.34814277049486452853
4.68843038587599281186