VARIABLES = "X", "Y", "P", "U", "V", "err"
ZONE NODES=1985, ELEMENTS=3808, DATAPACKING=BLOCK,
ZONETYPE=FETRIANGLE
0.00000000000000000000
0.10121677799999999336
0.00000000000000000000
0.20243355599999998673
0.10121677799999999336
0.00000000000000000000
0.40486711100000000174
0.30365033349999998036
0.30365033349999998036
0.20243355599999998673
0.20243355599999998673
0.00000000000000000000
0.00000000000000000000
0.10121677799999999336
0.10121677799999999336
0.15707963250000001043
0.31415926500000002086
0.25829641050000001767
0.62831853100000001344
0.57245567600000002439
0.47123889800000001715
0.51659282100000003535
0.41537604300000002810
0.46072996600000004630
0.35951318850000002492
0.42719075449999999172
0.44951439799999998170
0.32597397699999997034
0.49416168599999998889
0.37062126449999999167
0.47183804200000001305
0.24708084299999999445
0.34829762050000001583
0.12354042149999999722
0.22475719950000000447
0.52935763250000000824
0.58522048749999999728
0.65384815399999995922
0.69694619749999997538
0.76557386400000004834
0.64108334249999998633
0.90282919699999997221
0.77833867549999991020
0.83420153050000001027
0.70971100900000005929
0.55168127599999994271
0.80066231899999995569
0.69849544100000005020
0.67617179750000000471
0.59632856349999996404
0.57400491949999998820
0.37062126449999999167
0.24708084299999999445
0.24708084299999999445
0.00000000000000000000
0.00000000000000000000
0.12354042149999999722
0.00000000000000000000
0.12354042149999999722
0.00000000000000000000
0.12354042149999999722
0.78539816350000002387
0.94247779600000003430
0.85402583000000009683
1.25663706000000008345
1.16818509500000011769
1.09955742800000000337
1.07973312999999992989
1.01110546300000003761
0.99128116349999995105
0.92265349699999998911
0.65052280299999998281
0.75268968050000006897
0.80688391999999997672
0.95702343849999993441
1.01121767999999989662
0.85485656050000002892
1.11960615000000007768
0.96324503500000002720
1.06541191499999987613
0.90905079999999993667
0.50568521249999998091
0.51720873899999997292
0.38214479099999998368
0.54025579300000003968
0.40519184500000005045
0.52873226600000000630
0.27012789700000000570
0.39366831800000001707
0.13506394850000000285
0.25860437000000002783
0.66204632949999997482
0.97476856150000001922
0.82993097299999996075
0.81840744649999996874
0.68509338300000000022
0.67356985599999996683
1.32146878999999994875
1.38630052000000003609
1.23301682499999998299
1.51596397999999998873
1.36268028500000015768
1.45113225000000012344
1.20939659000000010458
1.29784855500000007034
1.05611289349999992737
1.14456486000000001724
1.21869561000000015127
1.16450137499999994972
1.31778507000000000282
1.11030713500000000060
1.41687452499999988476
1.26359083000000005370
0.40519184500000005045
0.27012789700000000570
0.27012789700000000570
0.00000000000000000000
0.00000000000000000000
0.13506394850000000285
0.00000000000000000000
0.13506394850000000285
0.00000000000000000000
0.13506394850000000285
1.60821188000000003804
1.54338014999999995069
1.70045978000000008734
1.41371669500000018971
1.57079633000000007392
1.47854842500000005501
1.88495558999999990313
1.79270768499999988421
1.72787595999999998853
1.63562805500000019165
1.08603581999999998509
0.94959081299999992254
1.09442840499999993753
0.81314580599999997101
0.95798339799999987498
1.10282098999999988997
0.67670079950000006086
0.82153838949999991037
1.11121356999999987281
0.96637598149999992536
1.58219708500000000306
1.64843019000000001739
1.48310763000000012113
1.78089640000000004605
1.61557384000000014979
1.71466329500000003172
1.45025128000000003148
1.54934073499999991341
1.28492871499999994356
1.38401817500000001715
0.54549798599999999027
0.40912348949999999270
0.54418743800000002331
0.27274899299999999513
0.40781294149999997023
0.54287688999999994532
0.13637449649999999757
0.27143844500000002817
0.54156634150000004801
0.40650239349999994776
0.68063244450000004448
0.67932189649999996650
0.81576690299999998768
0.67801134799999995817
0.95090136149999993087
0.81445635449999997935
1.22065004500000018339
1.32169394000000006706
1.21225746499999997852
1.52378171999999989517
1.41434524499999980662
1.42273782999999998111
1.30490876999999994013
1.31330135500000011461
1.19547229500000007363
1.20386487999999980403
1.38597261000000004927
1.71661773000000006384
1.65233906000000008163
1.55129516999999994553
1.58806038999999987738
1.48701650000000018537
1.67558783999999993952
1.76783573999999998883
1.83521169999999989031
1.95233154999999980461
2.01970750999999992814
1.86008364500000000774
2.15445943000000017520
1.99483556500000003275
2.08708347000000005167
1.92745960499999990923
1.74182094499999995385
2.06106867000000004708
1.96767790999999991897
1.90144480499999990464
1.87428715499999998251
1.80805404999999996818
0.40912348949999999270
0.27274899299999999513
0.27274899299999999513
0.00000000000000000000
0.00000000000000000000
0.13637449649999999757
0.00000000000000000000
0.13637449649999999757
0.00000000000000000000
0.13637449649999999757
0.68474654700000003871
0.81988100549999998190
0.82399510799999997612
1.09014991999999999450
1.09426402000000000392
0.95501546149999994029
1.10249222999999996198
0.96324366899999991354
1.09837812499999998295
0.95912956399999993451
2.24416310000000018832
2.17678714000000006479
2.33386677000000020143
2.04203522499999978734
2.19911485999999989360
2.10941118499999991087
2.51327412000000016690
2.42357044500000018417
2.35619449000000003025
2.26649081500000004752
1.56566509999999992075
1.60754847999999994634
1.45622862500000005426
1.69131523999999999752
1.53999538500000010544
1.64943185999999997193
1.38867552999999999130
1.49811200499999985780
1.23735567499999987717
1.34679214999999996571
1.62975551499999982141
1.69403418500000002567
1.73572930999999996970
1.82259152499999999009
1.86428664999999993412
1.75831285500000000788
1.94767690999999998347
1.84170311000000008761
1.90598177999999984777
1.80000797999999995191
1.54410948499999989281
1.39690373000000001014
1.39278963000000000072
1.24969798000000009708
1.24558387499999989600
1.24146977500000010863
2.22346295999999998827
2.29246648999999980134
2.13007219999999986015
2.43047354999999987157
2.26807925999999993039
2.36147001999999961441
2.10568496999999998920
2.19907572999999967323
1.94329068500000001762
2.03668143999999973204
0.54612785350000003781
0.54675772099999997433
0.40975335699999998473
0.54801745599999995839
0.41101309199999996880
0.54738758849999991085
0.27400872799999997920
0.41038322449999997676
0.13700436399999998960
0.27337886049999998717
0.96387353649999996108
0.82525484299999996018
0.82462497549999991264
0.68663614949999995929
0.68600628199999991175
0.68537641449999997523
1.88358648999999989115
1.81949607000000002088
1.77761268999999999529
1.75540565500000012022
1.71352227499999987259
1.67163889500000006905
2.06837606999999978896
2.02668093999999987531
2.18907522999999981650
1.98498580999999996166
2.30977438999999984404
2.14738009999999990285
2.58610852500000021337
2.65894292999999981575
2.49640485000000023064
2.80461174999999984792
2.64207366999999981871
2.73177733999999983183
2.47953558999999978951
2.56923925999999980263
2.31699751000000020440
2.40670117999999977343
2.52400809999999964361
2.45500456999999983054
2.61754264999999985974
2.38600104000000001747
2.71107720000000007587
2.54853912000000004667
1.65331779000000000934
1.51561140000000005301
1.66281714999999996607
1.37790501000000009668
1.52511076000000000974
1.67231650999999992280
1.24019862000000014035
1.38740437000000005341
1.68181587499999984914
1.53461011999999996647
0.00000000000000000000
0.13700436399999998960
0.00000000000000000000
0.41101309199999996880
0.27400872799999997920
0.27400872799999997920
0.00000000000000000000
0.00000000000000000000
0.13700436399999998960
0.13700436399999998960
1.09619266000000004091
0.95914885900000002028
1.09776754999999992535
0.82210505799999999965
0.96072374900000001574
1.09934244000000003183
0.68506125699999997902
0.82367995049999997992
1.10091733500000010793
0.96229864149999999601
2.04022278500000009416
2.13276865999999998280
1.97613236500000000184
2.31786039999999982086
2.16122411000000003156
2.22531452999999990183
2.00458781999999979817
2.06867823999999966844
1.84795153000000000887
1.91204194499999990953
1.51403650499999997692
1.37475521999999994449
1.37633011500000002059
1.23547393999999988168
1.23704882999999998816
1.23862372500000006426
2.16092194500000012169
2.40232026500000017677
2.37416698000000003788
2.28162110500000014923
2.34601368999999992937
2.25346782000000001034
2.88885697499999993809
2.81602256499999992201
2.97310220000000002827
2.67035375499999982907
2.82743338999999993533
2.74318815999999987554
3.14159265000000020862
3.05734742500000011844
2.98451302000000007197
2.90026779499999998180
1.79382484500000005667
1.80332420500000001340
1.93433190000000010400
1.82232292999999989647
1.95333062000000001746
1.81282356499999997013
2.21534601000000019866
2.07483895500000015133
2.08433831500000010806
1.94383126000000006073
2.60654667000000017651
2.70008121999999994856
2.78261979000000003737
2.88715031999999993673
2.96968889000000002554
2.79361576999999972060
3.13476604000000014238
2.95869291500000031192
3.05222746500000008396
2.87615434000000025350
2.29223180500000012216
2.26660320999999997937
2.13559551499999988877
2.24097461000000031106
2.10996691500000022046
1.97895921999999990781
0.54684371600000003522
0.41013278699999999866
0.54713715100000004377
0.27342185800000001761
0.41042622200000000721
0.54743058600000005232
0.13671092900000000880
0.27371529299999997065
0.54772402100000006087
0.41071965700000001576
0.95885542400000001173
0.82151818799999998255
0.82181162299999999110
0.68418095199999995337
0.68447438700000007294
0.68476782199999997047
2.45795389500000016625
2.48610718499999983067
2.59804739000000006754
2.54241375999999963398
2.65435396999999984047
2.51426047499999993917
2.87823437999999987014
2.73814088499999996884
2.76629417499999963326
2.62620068000000017605
1.63788711000000009044
1.50246350000000017388
1.64174478000000001465
1.36703989000000003529
1.50632117000000009810
1.64560244999999993887
1.23161627499999992708
1.37089755499999998989
1.64946012000000008513
1.51017883500000005270
2.94236729499999993820
2.83042708999999970132
3.00650021000000000626
2.71848687999999993892
3.07063312500000007432
2.89456000000000024386
2.96730216499999999158
3.05154739000000008176
3.12999258000000013524
3.22003783999999981802
3.29848302999999987151
3.13579261499999972784
3.45537340999999997848
3.29268299499999983482
3.37692821999999992499
3.21423780499999978133
3.04984073500000008039
3.37522156499999992363
3.29506971999999986878
3.21253115000000022405
3.21491787999999978354
3.13237930499999972511
1.78495210499999990006
1.92545915999999994739
1.91658642000000001282
2.20647327000000004205
2.19760052999999988543
2.06596621499999999472
2.17985505000000001630
2.04822073500000012558
2.18872778999999972882
2.05709347499999983810
0.41013278699999999866
0.27342185800000001761
0.27342185800000001761
0.00000000000000000000
0.00000000000000000000
0.13671092900000000880
0.00000000000000000000
0.13671092900000000880
0.00000000000000000000
0.13671092900000000880
1.77337909500000012741
1.77723676500000005163
1.90887107999999994234
1.78109443499999997584
2.04436306499999975728
1.91272874999999986656
2.42536857999999977409
2.53287676000000017140
2.39973998500000007539
2.74789311000000013863
2.61475633500000004261
2.64038493500000015501
2.48161955999999994660
2.50724816000000005900
2.34848278499999985058
2.37411138499999996299
0.68305927850000003332
0.82039651450000006250
0.81927484100000003142
1.09507098499999999675
1.09394930999999995258
0.95773374899999996757
1.09170596000000008630
0.95549040050000000335
1.09282763499999990842
0.95661207550000004751
2.56546207500000011947
2.84564906499999992207
2.81306374999999997399
2.70555557000000002077
2.78047843000000005631
2.67297025500000007270
1.50134182499999990767
1.36479653999999994696
1.36591821499999999112
1.22825125000000001663
1.22937292499999983875
1.23049460000000010496
3.53400785500000003125
3.45556266499999997777
3.61264230000000008403
3.29867228500000031488
3.45575191999999997705
3.37711747499999992428
3.76991117999999980626
3.69127674000000016719
3.61283155000000011370
3.53419711000000003054
3.02294202499999986600
3.08707493999999993406
3.16764966999999986186
3.21534077000000007018
3.29591549999999999798
3.15120785500000000212
3.45706496999999979280
3.31235731999999982733
3.37649023499999989539
3.23178258499999992992
3.53770432499999998299
3.62003523999999998750
3.45755247999999992814
3.78469706000000005730
3.62221430499999996755
3.70236615000000002240
3.45973154999999987780
3.53988339499999993265
3.29724879499999978805
3.37740063499999987329
2.31055870000000007636
2.31943143999999978888
2.44126235000000013642
2.33717692000000010211
2.45900783000000000555
2.32830417999999994549
2.70266963999999987323
2.57196599500000022687
2.58083873499999993939
2.45013508999999984894
2.71397551000000003540
2.59214460500000010157
2.72528138000000019758
2.47031369499999975403
2.73658724499999994606
2.60345047000000029414
0.13668522550000000715
0.27339615449999998820
0.27337045100000001430
0.54681801249999995029
0.54679230899999997639
0.41010708350000002476
0.54674090300000000031
0.41005567700000000730
0.54676660600000004386
0.41008137999999999534
3.53897299499999995476
3.45839826000000005735
3.62088102000000011671
3.37782352500000015993
3.70278903999999986496
3.54030628499999977521
0.68298216849999993094
0.68300787149999997450
0.81922343399999997260
0.68303357500000005942
0.95546469700000002945
0.81924913749999994650
2.17888656999999996700
2.17791808999999991769
2.04339458499999970797
2.17598111999999987987
2.04145762000000008385
2.17694960499999989878
1.90693412000000006579
2.04242610500000010276
1.77241061500000007811
1.90790259999999989304
3.18185071999999991021
3.07336132000000006315
3.10594663500000001122
2.96487192000000021608
2.99745723500000016415
3.03004255000000011222
2.85638251499999995531
2.88896783499999987299
2.95413846499999976913
2.92155315000000026515
1.63057599000000008616
1.49585848500000007100
1.63240377000000003171
1.36114098000000005584
1.49768626500000001656
1.63423154999999997727
1.22642347000000007107
1.36296876000000000140
1.63605933000000014488
1.49951404499999996212
3.25065428000000000708
3.17475019500000010808
3.31945784000000010394
3.09884611000000020908
3.38826140499999972633
3.24355375499999976086
4.09805238000000038312
3.93738263500000051920
4.01601708000000012788
3.77671289000000021119
3.85534733500000026396
3.93398177999999987264
3.61604315000000031688
3.69467759499999992556
3.85194647999999961741
3.77331203999999997833
3.69837406500000032139
4.01971355000000052371
3.94137472000000022021
3.85904380500000021570
3.86303588999999991671
3.78070498000000032590
2.03962983499999994663
1.90327855000000001340
1.90510633500000015061
1.76692727000000004978
1.76875504999999999534
1.77058283499999991051
2.69990089499999985634
2.69713214999999983945
2.56919725000000020998
2.69159465999999980568
2.56365975499999976250
2.69436340499999982256
2.43572485000000016342
2.56642849999999977939
2.30778995000000008986
2.43849360000000014992
2.56269127499999971320
2.43378789000000006482
2.43475637000000011412
2.30488450499999997234
2.30585298999999999126
2.30682147000000004056
0.41005567700000000730
0.27337045100000001430
0.27337045100000001430
0.00000000000000000000
0.00000000000000000000
0.13668522550000000715
0.00000000000000000000
0.13668522550000000715
0.00000000000000000000
0.13668522550000000715
2.82424751499999970861
2.83555338499999987079
2.94582538999999998808
2.85816511999999978144
2.96843712999999986835
2.84685925500000003296
3.18898114000000010293
3.06740326500000026755
3.07870913499999998564
2.95713125999999970617
1.09301330999999990468
0.95644520950000000425
1.09268647499999982386
0.81987710899999999281
0.95611837449999992344
1.09235963999999996510
0.68330900599999999656
0.81955027150000003822
1.09203280000000013672
0.95579153699999996885
3.18363332499999973635
3.18541593000000000657
3.07514392499999988928
3.18719853500000027680
3.07692652999999971541
2.96665452500000004221
3.62469175499999973766
3.70659978000000034370
3.79231854000000012661
3.87041582500000025391
3.95613459000000000643
3.78850780500000006157
4.12757211999999995555
3.95994533000000004108
4.04185335499999975895
3.87422656499999984447
1.22740398000000006107
1.22707714499999998026
1.36179464999999999542
1.22675030999999989945
1.49618531999999992976
1.36146781500000013665
3.63379450000000003840
3.52080855500000033942
3.58961211499999999219
3.40782261000000019635
3.47662617000000029321
3.54542972999999994599
3.29483666500000005328
3.36364022500000015015
3.50124734999999986940
3.43244378500000024701
4.17309671499999979005
4.09106141500000042299
4.24814105000000008516
3.92699081499999991252
4.08407044999999957469
4.00902611499999927958
4.39822971999999978721
4.32318538500000038027
4.24115008499999923686
4.16610574999999982992
3.94761562000000010286
4.02595445000000040636
4.11053418000000014842
4.18263211000000012518
4.26721183999999986725
4.10429328000000026577
4.43637131000000017877
4.27345274500000016360
4.35179157500000002301
4.18887301000000000784
3.75723890500000035075
3.71305652000000030455
3.88068331000000021902
3.66887413500000025834
4.00412771500000008729
3.83650092500000017282
3.18662657000000004714
3.06286858999999989095
3.06563733499999990784
2.93911061000000017884
2.94187935500000019573
2.94464810000000021262
2.81535263499999999226
2.81812138000000000915
2.82365887000000004292
2.82089012500000002603
2.19592769999999992692
2.05458976999999975988
2.19094105499999969311
1.91325184000000003692
2.04960312499999997016
2.18595440999999990339
1.77191391500000006154
1.90826519500000002516
2.18096776500000011367
2.04461648000000018044
2.94523674499999987830
3.18839249499999999315
3.18780384999999988338
3.06681461999999971368
3.18721520999999974322
3.06622597500000004800
3.52259116000000016555
3.41138781999999984862
3.40960521500000002248
3.30018447999999997577
3.29840187499999970555
3.29661926999999987942
4.03333438499999985538
4.35917150999999947203
4.28197170999999965346
4.19625294499999945685
4.20477191500000024860
4.11905315000000005199
0.54936199399999996462
0.41202149550000000122
0.54870672100000006388
0.27468099699999998231
0.41136622249999998946
0.54805144800000005212
0.13734049849999999116
0.27402572400000002606
0.54739617550000008173
0.41071094950000003321
2.71609168999999983640
2.58106405000000016514
2.70996743499999981353
2.44603641000000004979
2.57493979499999969818
2.70384317999999979065
2.31100876499999996483
2.43991215000000005730
2.69771891999999979816
2.56881553499999970569
0.95710048199999997465
0.82118765400000004462
0.82053238150000007423
0.68527482399999994911
0.68461955100000004837
0.68396427849999996695
1.61984890999999997518
1.60912183000000008626
1.48545824000000004084
1.58766768000000002559
1.46400408999999998017
1.59839475500000016694
1.34034049999999993474
1.47473116500000012152
1.21667690499999991971
1.35106757500000007610
2.32596869999999977807
2.32098205499999998835
2.45600970000000007332
2.31599541000000019864
2.58605069499999995486
2.45102305500000028360
4.25985688000000006781
4.33490121500000036292
4.42166137999999975250
4.48498988500000006496
4.57175005000000034272
4.40994554999999976985
4.74527038999999994928
4.58346588499999985089
4.65851022000000014600
4.49670571500000004761
4.66804562000000000666
4.59082085000000006403
4.50624111499999990826
4.51359608000000012140
4.42901634499999996564
4.34443660999999980987
1.76118683500000017261
2.04386269500000006261
1.89179768999999997625
1.90252476499999989556
1.73973268499999988990
1.75045976000000003125
3.64367495499999982655
3.65355541000000005880
3.53247161499999995371
3.67331633000000001843
3.55223253499999991334
3.66343586999999981657
3.43114873999999980825
3.54235207500000015557
3.31006494000000017763
3.42126827999999960639
3.18050706000000005247
3.05827895999999999077
3.18203693500000017735
2.93605085999999992907
3.05980883500000011566
3.18356680999999985815
2.81382275999999986738
2.93758073500000005396
3.18509668999999995265
3.06133871000000024054
3.55164389000000024765
3.42997145000000003279
3.43056009499999969847
3.30829900999999981792
3.30888764999999995808
3.30947629499999962377
4.13769302999999943893
4.14781393999999981048
4.01424862500000045884
4.16805574999999972619
4.03449043500000037454
4.15793484499999976833
3.90092512000000013472
4.02436952999999952851
3.76735981000000030861
3.89080421500000017687
2.83219553499999987523
2.82607127999999985235
2.94829937999999991405
2.81994701999999985986
3.06440321999999998326
2.94217511999999992156
0.41202149550000000122
0.27468099699999998231
0.27468099699999998231
0.00000000000000000000
0.00000000000000000000
0.13734049849999999116
0.00000000000000000000
0.13734049849999999116
0.00000000000000000000
0.13734049849999999116
4.72130886999999965781
4.57287467999999996948
4.65007447999999978805
4.42444049000000028116
4.50164029000000009972
4.57884008999999991829
4.27600630500000011835
4.35320609999999952322
4.50760570000000004853
4.43040590000000022997
1.15174010999999998361
1.00114558199999992283
1.13705840999999985286
0.85055105399999997307
0.98646388200000001412
1.12237670999999994415
0.69995652399999996884
0.83586935399999995333
1.10769501000000003543
0.97178218199999999438
1.47868579000000011092
1.36970389999999997421
1.35502220000000006550
1.26072200499999986789
1.24604030499999995918
1.23135860500000005047
4.04437089500000013231
3.92068604000000009435
3.91080557999999989249
3.79700118500000005639
3.78712072500000029862
3.77724026500000009676
4.81558985499999980817
4.72882968500000000489
4.88590931999999966706
4.55530934999999992385
4.71238898000000006050
4.64206951500000020161
5.02654825000000027302
4.95622878500000041413
4.86946861500000061085
4.79914914999999986378
4.84482144500000000420
4.94437250000000005912
4.76759667500000006157
5.14347461000000016895
4.96669878500000017141
5.04392355500000011403
4.78992296000000017386
4.86714773000000011649
4.61314713500000017632
4.69037190500000011895
2.36481832499999988784
2.49485932500000018308
2.53370894999999984876
2.75494131999999991578
2.79379094999999999516
2.62490032500000003424
2.87149021000000015391
2.70259958000000022338
2.83264058000000007453
2.66374994999999969991
4.26834663999999985862
4.40912115999999976168
4.27846755000000023017
4.69067019999999956781
4.56001659000000003630
4.54989567999999966474
4.42936297999999961661
4.41924206999999924506
4.29870936499999967140
4.28858845999999971355
1.65721615499999996857
1.80928115999999983288
1.72676462999999991155
2.11341117000000000559
2.03089464000000008426
1.96134616500000014128
1.86586158000000001955
1.79631310499999985453
1.94837811000000016293
1.87882963499999999790
4.71364920499999939807
4.70598954000000002651
4.56521501499999970974
4.69832987000000024125
4.55755534999999945001
4.41678082500000002142
4.82685030499999978559
4.75561591499999991584
4.93239173999999991338
4.68438152500000004608
5.03793317500000004117
4.86115735000000004362
3.67219376999999980171
3.55080197000000019614
3.67247440999999996691
3.42941017000000014647
3.55108260999999991725
3.67275505000000013212
3.30801837000000009681
3.42969081000000031167
3.67303568999999985323
3.55136325000000008245
3.30342874000000019663
3.30495861499999987743
3.42635041999999989670
3.30648849000000000231
3.54927209500000007125
3.42788029500000002159
3.17364463000000007753
3.05925639500000023929
3.17536023500000030850
2.94486815999999995697
3.06097200000000002618
3.17707584000000009539
2.83047992499999967464
2.94658377000000015755
3.17879145000000029597
3.06268761000000022676
0.12613473950000000934
0.26347523800000000049
0.25226947900000001868
0.53815623499999998280
0.52695047600000000099
0.40081573650000001940
0.50453895699999995461
0.37840421800000001440
0.51574471649999997780
0.38960997750000003759
1.54823426500000005390
1.68733121499999993986
1.50880085000000008222
1.61778273999999999688
1.33027048000000003292
1.43925237500000013924
0.98993982300000005203
0.82813953600000000943
0.83934529499999999125
0.66633924649999998202
0.67754500600000000521
0.68875076499999998703
4.18076428999999993863
4.05390229999999984756
4.17758715499999944143
3.92704031000000020057
4.05072516500000023854
4.17441001999999983241
3.80017832000000010950
3.92386317500000014746
4.17123288500000022339
4.04754802999999974134
3.09810602499999987458
3.02256742000000011572
2.98371779000000003634
2.94702881500000035686
2.90817918499999983339
2.86932955500000019811
2.51981119999999991776
2.43884032500000014210
2.60773094999999965893
2.35786944999999992234
2.52676007499999988326
2.69565069999999984418
2.27689857499999970258
2.44578920000000010759
2.78357045499999999905
2.61467982499999962442
2.35632379499999977668
2.19283639000000007968
2.27535292000000000101
2.02934898499999993859
2.11186551499999985992
2.19438204500000022534
5.37092179999999963513
5.21450894500000039500
5.28482840999999936571
5.05809609000000026668
5.12841555500000012557
5.19873501999999998446
4.90168324000000055207
4.97200270499999952278
5.11264163500000012874
5.04232217000000026985
5.00123429499999971881
5.31405999999999956174
5.25719820000000037652
5.15764714500000032160
5.20033640499999982865
5.10078535000000066191
3.79989767999999994430
4.05362166000000012644
3.92647902999999987017
3.92675967000000003537
3.79933639999999961390
3.79961704000000022319
4.84354683499999971730
4.94908826999999984508
4.96578479999999977679
5.16017114000000010066
5.17686767000000003236
5.05462970499999997287
5.21026073999999983499
5.08802277000000024998
5.19356420499999948959
5.07132623499999990457
4.69704571000000026260
4.56479822000000012849
4.69545183500000007371
4.43255072999999999439
4.56320434499999993960
4.69385795999999988481
4.30030323999999986029
4.43095685499999980550
4.69226407999999928222
4.56161046999999975071
4.83588716999999945756
5.08036310499999999024
4.95046547000000014549
4.95812513499999951705
4.82056783500000030074
4.82822750500000008600
3.63255878000000009820
3.51954585000000008677
3.64246753000000023093
3.40653292000000007533
3.52945460000000021950
3.65237627999999991957
3.29351999000000006390
3.41644167000000020806
3.66228502500000008268
3.53936334999999990814
3.51783024000000033027
3.40310170000000011825
3.40481731000000031884
3.28837316500000031994
3.29008877000000010682
3.29180438000000030740
4.30983464500000046371
4.30665750999999996651
4.43890500000000010061
4.30348037499999946931
4.56797535499999973752
4.43572786500000049159
1.78562091000000000562
1.70538023999999999170
1.60709054500000014798
1.54489889999999996384
1.44660920500000012012
1.62513956999999997777
1.34831951000000005436
1.52684987499999991201
1.25002981000000001899
1.42856018000000006829
0.37840421800000001440
0.25226947900000001868
0.25226947900000001868
0.00000000000000000000
0.00000000000000000000
0.12613473950000000934
0.00000000000000000000
0.12613473950000000934
0.00000000000000000000
0.12613473950000000934
0.91604492999999997949
0.81316843699999996620
0.97496872499999998052
0.71029194399999995291
0.87209223199999996723
1.03389251999999998155
0.60741545050000000927
0.76921573999999992566
1.09281631499999987156
0.93101602799999993998
3.24542365000000021524
3.31720266999999990887
3.16988504500000001229
3.46076071000000018429
3.31344308500000028772
3.38898169000000004658
3.16612545999999994706
3.24166406500000015001
3.01880783500000005048
3.09434643999999980934
5.44190804499999991606
5.35581465499999964663
5.51289429000000019698
5.18362787999999952149
5.34070750999999965813
5.26972126499999937721
5.65486677999999987065
5.58388053500000047791
5.49778714500000020848
5.42680089999999992756
1.07325842500000012691
1.13218222000000001692
1.23047192000000005230
1.19110601499999990693
1.38768541000000000807
1.28939571499999994231
5.47381307499999980593
5.57670434999999997672
5.41695127500000062071
5.78248689000000037908
5.62273382000000054859
5.67959562000000062199
5.46298074999999982992
5.51984254999999990332
5.30322767999999999944
5.36008947500000054731
3.15765259000000009237
2.99819224500000025557
3.08611199499999999674
2.83873189999999997468
2.92665165000000015993
3.01457139999999990110
2.67927155000000016827
2.76719129999999990943
2.94303080500000024955
2.85511104999999965059
5.74134967999999989985
5.60857744499999988363
5.59188091000000042641
5.47580520999999986742
5.45910867499999952202
5.44241214000000006479
5.34303297499999985121
5.32633644000000039398
5.29294337500000011687
5.30963990500000004857
2.19360888000000020526
2.11167205500000010332
2.27515946000000024441
2.02973523000000000138
2.19322263499999969838
2.35671003999999983947
1.94779840499999989945
2.11128581000000004053
2.43826061999999987862
2.27477321499999973753
3.58960926499999999351
3.54665974999999988881
3.47488072500000022558
3.50371023000000025860
3.43193121000000012089
3.36015218500000001356
4.17779533499999988777
4.17482637999999983691
4.05065270500000007559
4.16888846999999973519
4.04471479499999997387
4.17185742499999978605
3.92054112000000021254
4.04768375000000002473
3.79636744500000000713
3.92351007500000026340
4.82294510499999962150
4.95284273999999946625
4.95522000999999967519
5.21263801000000004393
5.21501528000000025287
5.08274037500000019918
5.21976980999999984334
5.08749491000000020335
5.21739254500000004811
5.08511764500000040812
3.23342961999999989331
3.16188902499999979767
3.30920665000000013833
3.09034842999999970203
3.38498368000000038336
3.23766605500000004270
4.82453898500000022409
5.08908878499999950407
4.95840776000000005297
4.95681388499999986408
4.82772673500000060187
4.82613285999999952480
2.03143138500000031144
1.86925388999999997353
1.94949455999999998745
1.70707639500000007970
1.78731706499999987159
1.86755773500000010756
5.45269644499999994736
5.77220259000000002203
5.76191828999999966499
5.61244952000000019154
5.75163398499999978242
5.60216521499999942080
4.03480605000000025484
3.90072362999999988631
3.91063237500000004943
3.76664120499999999225
3.77654995500000012498
3.78645869999999984401
4.31000148499999991003
4.43907184000000043511
4.43923867999999988143
4.69721254999999970892