VARIABLES = "X", "Y", "P", "U", "V", "err"
ZONE NODES=7777, ELEMENTS=15232, DATAPACKING=BLOCK,
ZONETYPE=FETRIANGLE
0.00000000000000000000
0.05060838899999999668
0.00000000000000000000
0.10121677799999999336
0.05060838899999999668
0.00000000000000000000
0.20243355599999998673
0.15182516699999998311
0.15182516699999998311
0.10121677799999999336
0.10121677799999999336
0.00000000000000000000
0.00000000000000000000
0.05060838899999999668
0.05060838899999999668
0.40486711100000000174
0.35425872199999997036
0.35425872199999997036
0.30365033299999999450
0.30365033299999999450
0.30365033299999999450
0.20243355599999998673
0.20243355599999998673
0.25304194450000000449
0.20243355599999998673
0.25304194450000000449
0.25304194450000000449
0.20243355599999998673
0.25304194450000000449
0.00000000000000000000
0.00000000000000000000
0.05060838899999999668
0.00000000000000000000
0.05060838899999999668
0.10121677799999999336
0.05060838899999999668
0.00000000000000000000
0.10121677799999999336
0.05060838899999999668
0.15182516699999998311
0.15182516699999998311
0.10121677799999999336
0.15182516699999998311
0.10121677799999999336
0.15182516699999998311
0.07853981649999999815
0.15707963299999999629
0.12914820550000000177
0.31415926500000002086
0.28622783800000001220
0.23561944900000000858
0.25829641100000000353
0.20768802199999999991
0.23036498350000000901
0.17975659450000000539
0.62831853100000001344
0.60038710350000001892
0.54977871450000004305
0.57245567600000002439
0.52184728700000004853
0.47123889800000001715
0.51659282100000003535
0.46598443200000000397
0.54452424850000002987
0.41537604299999997259
0.49391585949999999849
0.39269908149999999125
0.36476765399999999673
0.44330747049999996712
0.43279853849999999627
0.38219014949999996489
0.46072996599999999079
0.28097337249999998487
0.35951318900000001078
0.33158176100000003039
0.48866139350000004082
0.43805300499999999531
0.41012157750000000078
0.38744461600000001944
0.30890479999999997940
0.33683622699999998806
0.41602893250000000380
0.42719075400000000586
0.36542054349999997243
0.44951439799999998170
0.38774418750000000378
0.43835257599999999378
0.32597397700000002585
0.37658236550000001586
0.26420376649999999241
0.31481215500000003793
0.49416168599999998889
0.43239147499999996960
0.48299986400000000097
0.37062126400000000581
0.42122965300000003719
0.47183804200000001305
0.24708084299999999445
0.29768923199999997031
0.30885105349999997237
0.34829762100000000169
0.35945944250000000375
0.46067621999999996962
0.39890600949999999170
0.41006783150000003513
0.06177021049999999874
0.11237859949999999543
0.12354042099999999749
0.21359537800000000241
0.22475719999999999033
0.16298698899999999878
0.18531063200000000291
0.23591902149999999239
0.17414881050000000084
0.28652741049999996825
0.27536558850000003584
0.33713579900000001377
0.46711237199999999792
0.49504379949999999244
0.52935763300000004961
0.55090665400000005114
0.58522048699999995591
0.52297522649999994560
0.65384815399999995922
0.59160289349999994890
0.61953432049999990205
0.55728906000000000276
0.66263236400000002924
0.69694619700000004503
0.63470093650000003471
0.76557386400000004834
0.70332860299999999665
0.73126003050000010219
0.64108334199999994496
0.66901476949999993948
0.57883808150000004566
0.60676950900000004019
0.90282919699999997221
0.84058393600000003154
0.86851536400000006743
0.77833867499999997985
0.80627010300000001575
0.83420153100000005164
0.68177958149999995374
0.71609341449999996954
0.70971100899999994827
0.74402484199999996406
0.79988769749999999448
0.73764243650000005381
0.77195626999999999995
0.67539717549999989110
0.64746574799999989658
0.61315191449999995044
0.47827419349999999998
0.60276471499999995096
0.55168127600000005373
0.54051945450000005167
0.50059783700000004547
0.48943601500000000204
0.85174575799999996395
0.80066231899999995569
0.78950049699999991226
0.69849544100000005020
0.68733361950000004814
0.74957888000000005846
0.67617179800000004608
0.73841705850000005640
0.66500997600000000265
0.72725523650000001297
0.54524512450000006680
0.53408330250000002337
0.59632856300000003369
0.51175965849999993651
0.57400491899999994683
0.52292148049999997994
0.64741200200000004195
0.63625017999999999851
0.58516674099999999026
0.62508835849999999645
0.56284309750000005579
0.61392653699999999439
0.43239147499999996960
0.37062126400000000581
0.37062126400000000581
0.24708084299999999445
0.24708084299999999445
0.30885105349999997237
0.24708084299999999445
0.30885105349999997237
0.24708084299999999445
0.30885105349999997237
0.00000000000000000000
0.00000000000000000000
0.06177021049999999874
0.00000000000000000000
0.06177021049999999874
0.12354042099999999749
0.00000000000000000000
0.06177021049999999874
0.00000000000000000000
0.12354042099999999749
0.06177021049999999874
0.18531063200000000291
0.18531063200000000291
0.12354042099999999749
0.00000000000000000000
0.06177021049999999874
0.00000000000000000000
0.18531063200000000291
0.12354042099999999749
0.12354042099999999749
0.00000000000000000000
0.06177021049999999874
0.06177021049999999874
0.12354042099999999749
0.18531063200000000291
0.18531063200000000291
0.70685834749999998383
0.78539816399999995422
0.74117218049999999963
0.94247779600000003430
0.89825181300000001006
0.86393797999999999426
0.85402582999999998581
0.81971199699999997001
0.80979984700000007258
0.77548601350000001542
1.25663706000000008345
1.21241108000000008538
1.17809724500000001512
1.16818510000000008731
1.13387126500000001705
1.09955742999999994680
1.07973312999999992989
1.04541929499999985964
1.12395911499999989758
1.01110546000000001143
1.08964528000000004937
1.02101761299999993504
0.97679162799999996736
1.05533144499999997912
0.94705517999999999645
0.91274134700000009168
0.99128116300000002070
0.84411368050000001872
0.92265349699999998911
0.87842751399999996487
1.03550714650000008632
1.00119331349999995950
0.95696733000000000491
0.96687947850000000027
0.88833966350000004297
0.93256564499999994311
0.57234224449999993034
0.62342568300000000825
0.65052280299999998281
0.72559256100000002476
0.75268968099999999932
0.67450912200000001651
0.80688391999999997672
0.72870336150000003528
0.77978680049999993251
0.70160624199999999107
0.92992631749999998814
0.95702343800000000407
0.87884287849999997988
1.01121767999999989662
0.93303712049999987244
0.98412055899999995034
0.85485656099999995927
0.90593999949999992616
0.77667600100000000474
0.82775943999999990197
1.11960615000000007768
1.04142559249999999693
1.09250902999999999210
0.96324503500000002720
1.01432847249999991135
1.06541190999999990652
0.85796735999999995670
0.88506447750000005747
0.90905080000000004770
0.93614791750000003745
1.03831479499999979055
0.96013423999999991665
0.98723135500000003262
0.88195368050000000348
0.83087024050000002351
0.80377312099999997930
0.49992344900000001973
0.50568521200000005056
0.43815323800000005594
0.51720873899999997292
0.44967676499999997830
0.51144697549999995623
0.38214479099999998368
0.44391500150000001712
0.31461281699999998906
0.37638302749999996699
0.54025579300000003968
0.47272381900000004507
0.53449402950000002299
0.40519184499999999494
0.46696205550000002837
0.52873226600000000630
0.27012789700000000570
0.33189810750000003914
0.33765987100000000032
0.39366831800000001707
0.39943008150000003376
0.52297050249999998961
0.45543852849999999499
0.46120029200000001168
0.06753197449999999435
0.12930218499999998616
0.13506394899999998871
0.25284260650000001114
0.25860436999999997232
0.19107239549999999184
0.20259592300000001108
0.26436613349999998901
0.19683415949999999439
0.32613634400000002245
0.32037458050000000576
0.38790655450000000037
0.57810400750000001668
0.73446512450000001060
0.66204632900000004447
0.65628456600000006915
0.58962753400000000870
0.58386577050000010303
1.04718735600000001362
0.97476856199999994956
0.96900679849999993287
0.82993097299999996075
0.82416920949999994406
0.90234976749999995516
0.81840744600000003839
0.89658800400000004949
0.81264568299999995205
0.89082624050000003280
0.61267458799999996444
0.60691282449999994775
0.68509338300000000022
0.59538929749999991436
0.67356985599999996683
0.60115106099999993106
0.75751217800000003599
0.75175041450000001930
0.67933161949999998352
0.74598865100000000261
0.66780809250000006116
0.74022688749999998592
1.28905292500000001610
1.32146878999999994875
1.24482694500000001803
1.38630052000000003609
1.30965867000000013576
1.35388465499999988140
1.23301682000000001338
1.27724280499999998106
1.15637497499999986061
1.20060096000000005034
1.51596397999999998873
1.43932213499999983597
1.48354811500000005609
1.36268028999999990525
1.40690626999999990332
1.45113224999999990139
1.20939659000000010458
1.25362257500000007227
1.28603844000000000491
1.29784856000000003995
1.33026442499999997260
1.41871638499999996874
1.34207454000000003802
1.37449040499999997067
0.97947104350000002704
1.02369702650000005129
1.05611289000000008187
1.11214899500000008459
1.14456486000000001724
1.06792301150000001897
1.13275474000000020425
1.17698072499999994989
1.10033887500000004955
1.22120671000000013962
1.18879084000000001531
1.26543268999999991564
1.16915088000000011448
1.14205376000000002890
1.21869560999999992923
1.08785952499999982734
1.16450136999999998011
1.11495663999999994331
1.31778507000000000282
1.26824033999999996603
1.24114322000000010249
1.19159849000000006569
1.00656816399999993195
1.15985186500000003740
1.11030713999999997021
1.08321001500000013706
1.06076240999999993342
1.03366528899999998714
1.46641924999999995194
1.41687451999999991514
1.38977740499999979917
1.29068795000000013928
1.36732979499999984796
1.26359083000000005370
1.34023267499999998442
1.23649370999999996812
1.31313556000000009050
1.18694898499999990094
1.21404610000000001691
1.13740425499999986414
0.47272381900000004507
0.40519184499999999494
0.40519184499999999494
0.27012789700000000570
0.27012789700000000570
0.33765987100000000032
0.27012789700000000570
0.33765987100000000032
0.27012789700000000570
0.33765987100000000032
0.00000000000000000000
0.00000000000000000000
0.06753197449999999435
0.00000000000000000000
0.06753197449999999435
0.13506394899999998871
0.00000000000000000000
0.06753197449999999435
0.00000000000000000000
0.13506394899999998871
0.06753197449999999435
0.20259592300000001108
0.20259592300000001108
0.13506394899999998871
0.00000000000000000000
0.06753197449999999435
0.00000000000000000000
0.20259592300000001108
0.13506394899999998871
0.13506394899999998871
0.00000000000000000000
0.06753197449999999435
0.06753197449999999435
0.13506394899999998871
0.20259592300000001108
0.20259592300000001108
1.56208793000000012441
1.52967206499999996971
1.60821188000000003804
1.46484033499999988237
1.54338014999999995069
1.49725619999999981502
1.70045978000000008734
1.65433582999999995167
1.62191996500000001902
1.57579601499999988334
1.33517688000000012138
1.41371669999999993728
1.36759274500000005403
1.57079633000000007392
1.52467238000000016029
1.49225651500000000560
1.47854843000000002462
1.44613256500000009197
1.43242447499999991933
1.40000860999999998668
1.88495558999999990313
1.83883163500000001989
1.80641577500000005685
1.79270767999999991460
1.76029181999999995156
1.72787595999999998853
1.66804392000000012430
1.74658373000000000097
1.63562805999999993922
1.71416786999999981589
1.64933614499999992020
1.60321219500000000657
1.68175200999999985285
1.55708824500000009294
1.58950410500000005598
1.51096428999999998766
1.08603581999999998509
1.01781331650000006483
1.09023211000000008752
0.94959081300000003356
1.02200960649999994523
1.09442839999999996792
0.81314580599999997101
0.88556460199999997851
0.88136830950000000229
0.95798339799999998601
0.95378710550000000978
1.10282098999999988997
1.09862469499999981792
1.03040219399999988248
1.02620589900000003247
0.60847829649999995993
0.68089709149999999571
0.67670079999999999121
0.82573468099999991487
0.82153838899999998002
0.75331588599999999012
0.74492330299999998111
0.81734209749999997552
0.74911959449999998562
1.11540986000000019729
1.11121357000000009485
1.04299106599999991118
1.03459848549999988698
1.10701727999999999241
0.96637598099999999501
1.03879477549999998942
0.89815347699999992237
0.97057227150000002780
0.89395718499999998752
0.96217968949999999051
0.88976089349999998301
1.54908053499999986968
1.58219708999999997268
1.49953580499999983289
1.64843019000000001739
1.56576891000000006926
1.61531364000000010606
1.48310762999999989908
1.53265235999999993588
1.40044634999999995095
1.44999107499999979609
1.78089640000000004605
1.69823512000000009792
1.74777985000000013471
1.61557383999999992774
1.66511856999999996454
1.71466330000000000133
1.45025128000000003148
1.49979600499999987662
1.53291255999999997961
1.54934072999999994380
1.58245728499999982475
1.68154674499999989834
1.59888545999999998060
1.63200201499999986154
1.20226743000000002581
1.25181216000000006261
1.28492870999999997395
1.35090162500000010581
1.38401817999999998676
1.30135689500000006902
1.36758999499999989169
1.41713472999999989810
1.33447344499999998035
1.46667945499999996528
1.43356290500000005395
1.51622418000000003246
0.54549798599999999027
0.47731073749999997080
0.54484271200000000679
0.40912348900000000684
0.47665546349999998732
0.54418743800000002331
0.27274899299999999513
0.34028096699999998975
0.34093624099999997323
0.40781294099999998437
0.40846821499999996785
0.54287688999999994532
0.54353216399999992881
0.47534491549999996485
0.47600018950000000384
0.06818724800000000585
0.13571922250000001409
0.13637449600000001171
0.27078317099999998918
0.27143844499999997266
0.20325119699999999456
0.20456174450000000342
0.27209371900000001165
0.20390647049999999219
0.54091106749999995351
0.54156634199999997836
0.47337909349999995889
0.47468964149999998137
0.54222161599999996184
0.40650239300000001741
0.47403436749999999789
0.33831514500000003931
0.40584711900000003393
0.33897041900000002279
0.40715766700000000089
0.33962569300000000627
0.61306521550000003806
0.61240994149999994356
0.68063244499999997483
0.61109939299999993523
0.67932189600000003615
0.61175466700000002973
0.81576690299999998768
0.74819967399999998126
0.74754439949999995640
0.67997717049999994998
0.60913357099999998479
0.74557857699999996459
0.67801134799999995817
0.67735607399999997469
0.61044411899999995175
0.60978884499999996827
1.01846859049999993729
0.95090136100000000052
0.95024608700000001704
0.81511162849999996283
0.88333413199999999410
0.81445635400000004900
0.88267885749999996925
0.81380107999999995450
0.88202358350000009679
0.74623385099999994807
0.74688912500000004258
0.67866662199999994165
1.17012809999999989330
1.22065004999999993096
1.16593181000000001291
1.32169394000000006706
1.26697570000000014900
1.27117199499999999901
1.21225746000000000890
1.21645375499999985891
1.15753922499999983842
1.16173551500000016290
1.52378171999999989517
1.46906347999999997711
1.47325977499999982712
1.41434524000000005906
1.41854153500000013111
1.42273782999999998111
1.30490876999999994013
1.30910506500000001218
1.35962700500000011061
1.31330136000000008423
1.36382329999999996062
1.37221588500000013511
1.31749764999999996462
1.36801959500000003267
1.14075405999999990314
1.14495035000000000558
1.19547230000000004324
1.15334293499999995802
1.20386488000000002607
1.14914664000000010802
1.25019053499999999168
1.25438682500000009412
1.19966858999999992363
1.25858311999999994413
1.20806117000000012851
1.26277941000000004657
1.25278937999999984143
1.41811194500000015140
1.38597261000000004927
1.33545066000000001161
1.35383327499999994714
1.30331133000000010114
1.74875706499999994392
1.71661773000000006384
1.66609578499999999579
1.65233906000000008163
1.60181711500000001358
1.68447839500000018376
1.55129516999999994553
1.63395644999999989366
1.50077322500000009953
1.58343450500000004766
1.55592105499999999729
1.50539910999999992924
1.58806039000000009942
1.40435522000000001519
1.48701649999999996332
1.45487716500000008324
1.62019972499999997950
1.56967778000000013350
1.53753844500000003137
1.51915583499999984340
1.43649455499999989527
1.46863388999999999740
1.59577590999999996413
1.64189986000000009980
1.67558783999999993952
1.73414775999999992706
1.76783573999999998883
1.68802381000000001343
1.83521169999999989031
1.75539976999999991492
1.80152372000000005059
1.72171179000000007520
1.91864356999999996489
1.95233155000000002666
1.87251961499999985961
2.01970750999999992814
1.93989557999999995275
1.98601953000000008842
1.86008364999999997735
1.90620760000000011303
1.78027171500000003235
1.82639566499999994598
2.15445943000000017520
2.07464750000000019980
2.12077145000000033548
1.99483557000000000237
2.04095951999999991600
2.08708347000000005167
1.88133565000000002598
1.91502363499999983532
1.92745959999999993961
1.96114758499999997099
2.05339548999999976786
1.97358355499999982285
2.00727153500000010666
1.89377162499999984746
1.84764766999999996422
1.81395969499999987207
1.62889246499999984508
1.78851631999999982625
1.74182093999999998424
1.70870438999999985086
1.69512556500000011184
1.66200901499999997846
2.10776405000000011114
2.06106867000000004708
2.02795212000000013575
1.96767790999999991897
1.93456135500000003802
2.01437328999999998302
1.90144479999999993503
1.98125673500000010208
1.86832824999999980164
1.94814018499999996870
1.82759177500000014049
1.79447522500000000711
1.87428715000000001289
1.72824211999999999279
1.80805404999999996818
1.76135867499999987373
1.92098252999999985491
1.88786597999999994357
1.84117059999999987951
1.85474942500000006262
1.77493749500000008723
1.82163286999999995963
0.47731073749999997080
0.40912348900000000684
0.40912348900000000684
0.27274899299999999513
0.27274899299999999513
0.34093624099999997323
0.27274899299999999513
0.34093624099999997323
0.27274899299999999513
0.34093624099999997323
0.00000000000000000000
0.00000000000000000000
0.06818724800000000585
0.00000000000000000000
0.06818724800000000585
0.13637449600000001171
0.00000000000000000000
0.06818724800000000585
0.00000000000000000000
0.13637449600000001171
0.06818724800000000585
0.20456174450000000342
0.20456174450000000342
0.13637449600000001171
0.00000000000000000000
0.06818724800000000585
0.00000000000000000000
0.20456174450000000342
0.13637449600000001171
0.13637449600000001171
0.00000000000000000000
0.06818724800000000585
0.06818724800000000585
0.13637449600000001171
0.20456174450000000342
0.20456174450000000342
0.61512226650000001449
0.68268949600000006228
0.68474654700000003871
0.81782395400000007513
0.81988100500000005155
0.75025672500000006870
0.82399510799999997612
0.75437082750000006293
0.82193805650000006935
0.75231377600000004513
1.08809287000000010082
1.09014991999999999450
1.02052564050000005302
1.09426402000000000392
1.02463974050000006244
1.09220696999999988819
0.95501546100000000994
1.02258269049999994671
0.88539118199999999881
0.95295841100000000523
1.10249222999999996198
1.03286794949999993776
1.10043517499999987663
0.96324366900000002456
1.03081089450000007446
1.09837812000000001333
0.89156233600000001083
0.89361938850000000034
0.95912956400000004553
0.96118661650000003505
1.09632107000000011965
1.02669679200000008024
1.02875384199999997392
0.95707251250000002774
0.88950528449999999303
0.88744823299999997523
2.19931126500000040380
2.16562328500000011999
2.24416310000000018832
2.09824732499999999646
2.17678714000000006479
2.13193530499999983618
2.33386677000000020143
2.28901493499999997283
2.25532695500000013311
2.21047511999999990451
1.96349540499999974941
2.04203521999999981773
1.99718338500000003322
2.19911485999999989360
2.15426302000000013948
2.12057503999999985567
2.10941117999999994126
2.07572319999999965745
2.06455934500000015674
2.03087136499999987294
2.51327412000000016690
2.46842228499999993829
2.43473430500000009857
2.42357045000000015378
2.38988246999999986997
2.35619449000000003025
2.30017879499999988724
2.37871860999999995556
2.26649082000000001713
2.34503063500000008545
2.27765467499999996193
2.23280283999999973332
2.31134265499999980165
2.18795099999999997920
2.22163897999999981892
2.14309916000000022507
1.54472341000000001898
1.56566509999999992075
1.49000516999999987888
1.60754847999999994634
1.53188855500000009613
1.58660678999999982253
1.45622863000000002387
1.51094686499999997231
1.38056869999999998200
1.43528693500000015248
1.69131523999999999752
1.61565531500000014731
1.67037354999999987371
1.53999539000000007505
1.59471362500000002349
1.64943185999999997193
1.38867552999999999130
1.44339376500000016179
1.46433546000000003318
1.49811200000000011023
1.51905369500000020366
1.62849017000000007016
1.55283024000000002829
1.57377192999999993006
1.16169574499999983530
1.21641398499999997540
1.23735566999999990756
1.32585045999999984190
1.34679214999999996571
1.27113222500000011550
1.31301559999999994943
1.36773384000000008953
1.29207391000000004766
1.42245207500000003797
1.40151038999999988377
1.47717031499999995603
1.57676861499999998451
1.60890795000000008663
1.62975551000000007384
1.67318662500000003845
1.69403418999999999528
1.64104728999999993633
1.73572930999999996970
1.68274240999999991075
1.71488174999999998249
1.66189484999999992354
1.80174396000000003326
1.82259152000000002047
1.76960462499999993113
1.86428664999999993412
1.81129975499999984478
1.84343908499999997730
1.75831285999999997749
1.79045218999999988796
1.70532596000000014058
1.73746529500000002066
1.94767690999999998347
1.89469001000000014656
1.92682934500000002664
1.84170311000000008761
1.87384244500000018974
1.90598178000000006982
1.76786864500000007183
1.78871621000000002866
1.80000797999999995191
1.82085554500000013078
1.88513421499999989095
1.83214731499999983200
1.85299488000000001087
1.77916041999999996470
1.74702108500000008462
1.72617352500000009741
1.61771236000000007138
1.54410947999999992319
1.54205243499999999912
1.39690373000000001014
1.39484668000000011645
1.47050660499999996667
1.39278963000000000072
1.46844955499999985093
1.39073257999999988499
1.46639250999999992686
1.17609510499999991850
1.17403805000000005521
1.24969798000000009708
1.16992394499999985413
1.24558386999999992639
1.17198099499999996986
1.32330085500000005361
1.32124379999999996826
1.24764092500000001174
1.16375279499999995103
1.31507265500000003478
1.24146978000000007825
1.23941272499999999290
1.16786689999999993006
1.16580985000000003637
1.24352682500000000232
1.31712970500000015051
1.31918675000000007458
2.18896119500000008173
2.22346295999999998827
2.14226581500000001768
2.29246648999999980134
2.21126934499999983075
2.25796472499999989481
2.13007219999999986015
2.17676757999999992421
2.04887505499999988956
2.09557043499999995362
2.43047354999999987157
2.34927640499999990098
2.39597178499999996504
2.26807925999999993039
2.31477463999999999444
2.36147002000000005850
2.10568496999999998920
2.15238035000000005326
2.18688211499999995979
2.19907573000000011731
2.23357749500000002385
2.32696825499999970788
2.24577110999999973728
2.28027287500000008791
1.86209354500000001664
1.90878892000000011109
1.94329068999999998724
2.00217967499999982550
2.03668144000000017613
1.95548429500000020553
2.02448782999999998822
2.07118320500000008266
1.98998606500000008168
2.11787858500000014672
2.08337681999999979610
2.16457396499999976669
0.54581291999999992370
0.54612785399999996816
0.47762567150000001526
0.54675772099999997433
0.47825553899999995178
0.54644278749999997125
0.40975335699999998473
0.47794060549999994869
0.34125117500000001769
0.40943842299999999579
0.54801745599999995839
0.47951527399999999135
0.54770252200000002496
0.41101309200000002431
0.47920034000000000241
0.54738758799999998050
0.27400872799999997920
0.34219597599999995730
0.34251091000000000175
0.41038322399999999091
0.41069815799999997985
0.54707265449999997742
0.47857047249999995486
0.47888540599999995795
0.06850218199999999480
0.13668943000000000065
0.13700436399999998960
0.27306392649999999822
0.27337886000000000131
0.20487667800000000651
0.20550654599999998440
0.27369379399999999025
0.20519161199999999545
0.34188104200000002386
0.34156610850000002078
0.41006829049999998782
1.03318288300000005187
0.96387353600000003073
0.96355860250000002765
0.82525484299999996018
0.82493990900000002675
0.89456418950000005097
0.82462497499999998229
0.89424925550000000651
0.82431004149999997921
0.89393432200000000343
0.61732680250000004918
0.61701186850000000472
0.68663614900000002894
0.61638200149999999855
0.68600628200000002277
0.61669693500000000164
0.75594549600000005007
0.75563056249999993597
0.68632121550000002586
0.61543720049999994792
0.75468576099999995499
0.68537641400000004488
0.68506148050000004179
0.61606706749999995409
0.61575213400000006203
0.68569134799999997831
0.75500069450000006910
0.75531562850000000253
1.91563170000000004833
1.88358648999999989115
1.86264479999999998938
1.81949607000000002088
1.79855438000000011911
1.85154127999999995602
1.77761268999999999529
1.83059958999999983220
1.75667099999999987148
1.80965789999999993043
1.72336044999999993266
1.70241876000000003089
1.75540566000000008984
1.66053537499999981364
1.71352226999999990298
1.68147706499999993746
1.78745086500000005536
1.76650916999999996193
1.73446396499999999641
1.59771030500000010832
1.70368410500000000418
1.67163890000000003866
1.65069720500000016727
1.63959368999999988148
1.61865199999999997971
1.69258058499999997082
1.72462579500000012800
1.74556748000000006016
2.00802648999999977519
1.98717892499999981837
2.06837606999999978896
1.94548379499999990472
2.02668093999999987531
1.96633135999999986154
2.18907522999999981650
2.12872564999999980273
2.10787808499999984591
2.04752850499999983214
1.88294110500000000386
2.04533538999999997543
1.98498580999999996166
1.96413824999999997445
1.92463622999999994789
1.90378866499999999107
2.37012396999999985781
2.30977438999999984404
2.28892682499999988721
2.16822766499999985967
2.24942480999999983027
2.14738009999999990285
2.22857724499999987344
2.12653253499999994602
2.20772967999999991662
2.06618295499999993226
2.08703051999999988908
2.00583337499999991849
2.54969132500000039698
2.58610853000000018298
2.50483949000000016838
2.65894292999999981575
2.57767388999999980115
2.62252572999999999936
2.49640484999999978655
2.54125668999999998476
2.41513580999999977195
2.45998764999999997016
2.80461174999999984792
2.72334270999999983331
2.76819454500000006192
2.64207366999999981871
2.68692550499999960323
2.73177733999999983183
2.47953558999999978951
2.52438742499999957403
2.56080462999999980411
2.56923925999999980263
2.60565646500000003272
2.69536013499999960175
2.61409109500000003123
2.65050829999999981723
2.23572847000000018980
2.28058030499999997431
2.31699751000000020440
2.37028397500000043152
2.40670118000000021752
2.32543214000000020292
2.39826654999999977491
2.44311838500000000352
2.36184934500000043300
2.48797022000000023212
2.45155301500000000203
2.53282205499999957254
2.47724082499999997964
2.44273906000000007310
2.52400810000000008770
2.37373552999999981594
2.45500456999999983054
2.40823729500000016657
2.61754264999999985974
2.57077537500000019577
2.53627360999999984514
2.48950633499999973708
2.27023023500000009633
2.43276831499999968145
2.38600104000000001747
2.35149927500000011094
2.33923376499999990941
2.30473200000000000287
2.75784447499999973985
2.71107720000000007587
2.67657543500000016934
2.58304088499999995321
2.66430992499999996781
2.54853912000000004667
2.62980816000000006127
2.51403735500000014014
2.59530639499999971065
2.46727008000000003207
2.50177184499999993861
2.42050280499999992401
1.65331779000000000934
1.58446459500000003118
1.65806746999999998771
1.51561140000000005301
1.58921427500000000954
1.66281714999999996607
1.37790501000000009668
1.45150788500000005321
1.44675820500000007485
1.52511076000000000974
1.52036108000000003138
1.67231650999999992280
1.66756682999999994443
1.59871363499999996627
1.59396395499999998790
1.17134542499999994014
1.24494829999999989667
1.24019861999999991831
1.39215405000000003177
1.38740437000000005341
1.31855117500000007524
1.30905181500000011852
1.38265469000000007505
1.31380149499999987484
1.68656555500000004955
1.68181587000000010157
1.61296267499999990136
1.60346331499999994463
1.67706619000000012321
1.53461011999999996647
1.60821299500000014504
1.46575692499999998830
1.53935979999999994483
1.46100724500000000994
1.52986043999999998810
1.45625756500000003157
0.00000000000000000000
0.06850218199999999480
0.00000000000000000000
0.20550654599999998440
0.13700436399999998960
0.13700436399999998960
0.00000000000000000000
0.00000000000000000000
0.06850218199999999480
0.06850218199999999480
0.47951527399999999135
0.41101309200000002431
0.41101309200000002431
0.27400872799999997920
0.27400872799999997920
0.34251091000000000175
0.27400872799999997920
0.34251091000000000175
0.27400872799999997920
0.34251091000000000175
0.00000000000000000000
0.00000000000000000000
0.06850218199999999480
0.00000000000000000000
0.06850218199999999480
0.13700436399999998960
0.06850218199999999480
0.00000000000000000000
0.13700436399999998960
0.06850218199999999480
0.20550654599999998440
0.20550654599999998440
0.13700436399999998960
0.20550654599999998440
0.13700436399999998960
0.20550654599999998440
1.09619266000000004091
1.02767075950000008611
1.09698010500000009415
0.95914885900000002028
1.02845820449999991730
1.09776754999999992535
0.82210505799999999965
0.89141440350000000770
0.89062695849999995446
0.96072374900000001574
0.95993630399999996250
1.09934244000000003183
1.09855499499999997859
1.03003309450000002379
1.02924564949999997054
0.61653935649999991320
0.68584870300000000398
0.68506125699999997902
0.82446739650000000488
0.82367995000000004957
0.75515804950000009477
0.75358315750000004485
0.82289250400000002461
0.75437060349999995879
1.10170478499999990873
1.10091734000000007754
1.03239543799999999862
1.03082054049999993772
1.10012989000000005468
0.96229864099999995464
1.03160799049999996058
0.89377674200000001292
0.96308608849999999268
0.89298929550000005761
0.96151119499999992968
0.89220184950000003266
1.99394984999999991260
2.04022279000000006377
1.96190463999999997746
2.13276865999999998280
2.05445051500000008815
2.08649572499999980124
1.97613236999999997145
2.00817757999999990659
1.89781421999999988515
1.92985943000000004233